nohup: ignoring input

                                 *****************
                                 * O   R   C   A *
                                 *****************

                                            #,                                       
                                            ###                                      
                                            ####                                     
                                            #####                                    
                                            ######                                   
                                           ########,                                 
                                     ,,################,,,,,                         
                               ,,#################################,,                 
                          ,,##########################################,,             
                       ,#########################################, ''#####,          
                    ,#############################################,,   '####,        
                  ,##################################################,,,,####,       
                ,###########''''           ''''###############################       
              ,#####''   ,,,,##########,,,,          '''####'''          '####       
            ,##' ,,,,###########################,,,                        '##       
           ' ,,###''''                  '''############,,,                           
         ,,##''                                '''############,,,,        ,,,,,,###''
      ,#''                                            '''#######################'''  
     '                                                          ''''####''''         
             ,#######,   #######,   ,#######,      ##                                
            ,#'     '#,  ##    ##  ,#'     '#,    #''#        ,####,    ,#,          
            ##       ##  ##   ,#'  ##            #'  '#       #'       ,# #          
            ##       ##  #######   ##           ,######,      #####,      #          
            '#,     ,#'  ##    ##  '#,     ,#' ,#      #,     #,   #      #          
             '#######'   ##     ##  '#######'  #'      '#     '####' #    #          



                #########################################################
                #                        -***-                          #
                #          Department of theory and spectroscopy        #
                #                                                       #
                #                      Frank Neese                      #
                #                                                       #
                #     Directorship, Architecture, Infrastructure        #
                #                    SHARK, DRIVERS                     #
                #        Core code/Algorithms in most modules           #
                #                                                       #
                #        Max Planck Institute fuer Kohlenforschung      #
                #                Kaiser Wilhelm Platz 1                 #
                #                 D-45470 Muelheim/Ruhr                 #
                #                      Germany                          #
                #                                                       #
                #                  All rights reserved                  #
                #                        -***-                          #
                #########################################################


                         Program Version 6.1.0-f.0  -   RELEASE   -


 With contributions from (in alphabetic order):
[Max-Planck-Institut fuer Kohlenforschung]                               
  Daniel Aravena         : Magnetic Suceptibility                        
  Michael Atanasov       : Ab Initio Ligand Field Theory (pilot matlab implementation)
  Alexander A. Auer      : GIAO ZORA, VPT2 properties, NMR spectrum      
  Ute Becker             : All parallelization in ORCA, NUMFREQ, NUMCALC 
  Giovanni Bistoni       : ED, misc. LED, open-shell LED, HFLD           
  Dmytro Bykov           : pre 5.0 version of the SCF Hessian            
  Marcos Casanova-Páez   : Triplet and SCS-CIS(D). UHF-(DLPNO)-IP/EA/STEOM-CCSD. UHF-CVS-IP/STEOM-CCSD   
  Vijay G. Chilkuri      : MRCI spin determinant printing, contributions to CSF-ICE 
  Pauline Colinet        : FMM embedding                                 
  Dipayan Datta          : RHF DLPNO-CCSD density                        
  Achintya Kumar Dutta   : EOM-CC, STEOM-CC                              
  Nicolas Foglia         : Exact transition moments, OPA infrastructure, MCD improvements    
  Dmitry Ganyushin       : Spin-Orbit,Spin-Spin,Magnetic field MRCI      
  Miquel Garcia-Rates    : C-PCM and meta-GGA Hessian, CCSD/C-PCM, Gaussian charge scheme 
  Tiago L. C. Gouveia    : GS-ROHF, GS-ROCIS                             
  Yang Guo               : DLPNO-NEVPT2, F12-NEVPT2, CIM, IAO-localization        
  Andreas Hansen         : Spin unrestricted coupled pair/coupled cluster methods 
  Ingolf Harden          : AUTO-CI MPn and infrastructure                
  Benjamin Helmich-Paris : MC-RPA, TRAH-(SCF,CASSCF), AVAS, COSX integrals, SCF dyn. polar., MC-PDFT, srDFT 
  Lee Huntington         : MR-EOM, pCC                                   
  Robert Izsak           : Overlap fitted RIJCOSX, COSX-SCS-MP3, EOM     
  Riya Kayal             : Wick's Theorem for AUTO-CI, AUTO-CI UHF-CCSDT 
  Emily Kempfer          : AUTO-CI RHF CISDT and CCSDT, approximate NEVPT4
  Christian Kollmar      : KDIIS, OOCD, Brueckner-CCSD(T), CCSD density, CASPT2, CASPT2-K, improved NEVPT2 
  Axel Koslowski         : Symmetry handling                             
  Simone Kossmann        : meta-GGA functionals, TD-DFT gradient, OOMP2, (MP2 Hessian; deprecated post 5.0) 
  Lucas Lang             : DCDCAS, Hyperfine gauge corrections, ICE-SOC+SSC
  Marvin Lechner         : AUTO-CI (C++ implementation), FIC-MRCC        
  Spencer Leger          : CASSCF response                               
  Dagmar Lenk            : GEPOL surface, SMD, ORCA-2-JSON               
  Dimitrios Liakos       : Extrapolation schemes; Compound Job, Property file
  Dimitrios Manganas     : Further ROCIS development; embedding schemes. LFT, Crystal Embedding 
  Dimitrios Pantazis     : SARC Basis sets                               
  Anastasios Papadopoulos: AUTO-CI, single reference methods and gradients 
  Taras Petrenko         : pre 6.0 DFT Hessian and TD-DFT gradient,  ECA, NRVS 
  Petra Pikulova         : Analytic Raman intensities                    
  Peter Pinski           : DLPNO-MP2, DLPNO-MP2 Gradient                 
  Shashank Vittal Rao    : ES-AILFT, MagRelax                            
  Christoph Reimann      : Effective Core Potentials                     
  Marius Retegan         : Local ZFS, SOC                                
  Christoph Riplinger    : Optimizer, TS searches, QM/MM, DLPNO-CCSD(T), (RO)-DLPNO pert. Triples 
  Michael Roemelt        : Original ROCIS implementation, recursive CI coupling coefficients
  Masaaki Saitow         : Open-shell DLPNO-CCSD energy and density      
  Barbara Sandhoefer     : DKH picture change effects                    
  Yorick L. A. Schmerwitz: GMF and freeze-and-release deltaSCF, NEB S-IDPP initial path                    
  Kantharuban Sivalingam : CASSCF convergence/infrastructure, NEVPT2, NEVPT3, NEVPT4(SD), FIC-MRCI and CEPA variants
  Bernardo de Souza      : ESD, SOC TD-DFT                               
  Georgi L. Stoychev     : AutoAux, RI-MP2 NMR, DLPNO-MP2 response, X2C  
  Van Anh Tran           : RI-MP2 g-tensors                              
  Willem Van den Heuvel  : Paramagnetic NMR                              
  Zikuan Wang            : NOTCH, Electric field optimization            
  Frank Wennmohs         : Technical directorship and infrastructure     
  Hang Xu                : AUTO-CI-Response properties                   
                                                                         
[FACCTs GmbH]                                                            
  Markus Bursch, Nicolas Foglia, Miquel Garcia-Rates, Ingolf Harden, Hagen Neugebauer, Anastasios Papadopoulos, 
  Christoph Riplinger, Bernardo de Souza, Georgi L. Stoychev                                                    
                                                                 
  APM, various basis sets, CI-OPT, improved COSX, DLPNO-Multilevel,           
  DOCKER, DRACO, updates on ESD, Fragmentator, GOAT, IRC, LR-CPCM, L-BFGS, MBIS, meta-GGA TD-DFT gradient, ML-optimized integration grids, 
  MM, NACMEs, nearIR, NEB, NEB-TS, NL-DFT gradient (VV10), 2- and 3-layer-ONIOM, interface openCOSMO-RS, QMMM,   
  Crystal-QMMM, RESP, rigid body optimization, SF, symmetry and pop. for TD-DFT, various functionals, SOLVATOR                                   
                                                                         
[Other institutions]                                                     
  V. Asgeirsson          : NEB                                           
  Christoph Bannwarth    : sTDA-DFT, sTD-DFT, PBEh-3c, B97-3c, D3        
  Giovanni Bistoni       : ETS/NOCV, ADLD/ADEX, COVALED                  
  Martin Brehm           : Molecular dynamics                            
  Ronald Cardenas        : ETS/NOCV                                      
  Martina Colucci        : COVALED                                       
  Sebastian Ehlert       : rSCAN, r2SCAN, r2SCAN-3c, D4, dhf basis sets  
  Marvin Friede          : D4 for Fr, Ra, Ac-Lr                          
  Lars Goerigk           : TD-DFT with DH, B97 family of functionals     
  Stefan Grimme          : VdW corrections, initial TS optimization, DFT functionals, gCP, sTDA/sTD-DF 
  Waldemar Hujo          : DFT-NL                                        
  H. Jonsson             : NEB                                           
  Holger Kruse           : gCP                                           
  Marcel Mueller         : wB97X-3c, vDZP basis set                      
  Hagen Neugebauer       : wr2SCAN, Native XTB                           
  Gianluca Regni         : ADLD/ADEX                                     
  Tobias Risthaus        : pre 6.0 range-separated hybrid DFT and stability analysis
  Lukas Wittmann         : regularized MP2, r2SCAN double-hybrids, wr2SCAN        
                                                                         
We gratefully acknowledge several colleagues who have allowed us to      
interface, adapt or use parts of their codes:                            
  Ed Valeev, F. Pavosevic, A. Kumar             : LibInt (2-el integral package), F12 methods 
  Garnet Chan, S. Sharma, J. Yang, R. Olivares  : DMRG                   
  Ulf Ekstrom                                   : XCFun DFT Library      
  Mihaly Kallay                                 : mrcc  (arbitrary order and MRCC methods)
  Frank Weinhold                                : gennbo (NPA and NBO analysis)           
  Simon Mueller                                 : openCOSMO-RS                            
  Christopher J. Cramer and Donald G. Truhlar   : smd solvation model                     
  S Lehtola, MJT Oliveira, MAL Marques          : LibXC Library                           
  Liviu Ungur et al                             : ANISO software                          


 Your calculation uses the libint2 library for the computation of 2-el integrals
 For citations please refer to: http://libint.valeyev.net

 Your ORCA version has been built with support for libXC version: 7.0.0
 For citations please refer to: https://libxc.gitlab.io

 This ORCA versions uses:
   CBLAS   interface :  Fast vector & matrix operations
   LAPACKE interface :  Fast linear algebra routines
   SCALAPACK package :  Parallel linear algebra routines
   Shared memory     :  Shared parallel matrices
   BLAS/LAPACK       :  OpenBLAS 0.3.29  USE64BITINT DYNAMIC_ARCH NO_AFFINITY Haswell SINGLE_THREADED
        Core in use  :  Haswell
   Copyright (c) 2011-2014, The OpenBLAS Project


  ***********************************
  * Starting time: Wed Mar 11 22:54:07 2026
  * Host name:     DESKTOP-TJ4RJ75
  * Process ID:    1280
  * Working dir.:  /home/kubra/frataxin_extended/D_QMMM/cluster
  ***********************************

NOTE: MaxCore=2000 MB was set to SCF,MP2,MDCI,CIPSI,MRCI,RASCI and CIS
      => If you want to overwrite this, your respective input block should be placed after the MaxCore statement


***************************************
The coordinates will be read from file: qm_cluster.xyz
***************************************


Your calculation utilizes the atom-pairwise dispersion correction
with the Becke-Johnson damping scheme (D3BJ)


================================================================================

----- Orbital basis set information -----
Your calculation utilizes the basis: def2-TZVP
   F. Weigend and R. Ahlrichs, Phys. Chem. Chem. Phys. 7, 3297 (2005).

----- AuxJ basis set information -----
Your calculation utilizes the auxiliary basis: def2/J
   H-Rn: F. Weigend, Phys. Chem. Chem. Phys. 8, 1057 (2006).
   Fr-Lr: K. Eichkorn, F. Weigend, O. Treutler, R. Ahlrichs; Theor. Chem. Acc. 97, 119 (1997).

================================================================================
                                        WARNINGS
                       Please study these warnings very carefully!
================================================================================


WARNING: your system is open-shell and RHF/RKS was chosen
  ===> : WILL SWITCH to UHF/UKS


================================================================================
                                       INPUT FILE
================================================================================
NAME = qm_sp_only.inp
|  1> ! B3LYP def2-TZVP def2/J RIJCOSX D3BJ
|  2> ! SP
|  3> %maxcore 2000
|  4> 
|  5> %scf
|  6>   MaxIter 500
|  7> end
|  8> 
|  9> %output
| 10>   Print[P_Mulliken] 1
| 11>   Print[P_Loewdin] 1
| 12>   Print[P_Mayer] 1
| 13> end
| 14> 
| 15> * xyzfile 0 5 qm_cluster.xyz
| 16> 
| 17>                          ****END OF INPUT****
================================================================================

                       ****************************
                       * Single Point Calculation *
                       ****************************

---------------------------------
CARTESIAN COORDINATES (ANGSTROEM)
---------------------------------
  Fe    41.170000   41.160000   47.080000
  N     71.639000    5.890000    2.150000
  H     72.149000    6.720000    2.350000
  C     72.339000    4.820000    1.490000
  H     71.789000    4.650000    0.570000
  C     73.829000    5.140000    1.230000
  H     74.259000    4.340000    0.600000
  H     74.399000    5.230000    2.180000
  C     73.979000    6.330000    0.230000
  H     73.189000    7.110000    0.330000
  H     73.769000    5.861000   -0.750000
  C     75.419000    6.950000    0.160000
  O     76.199000    6.721000   -0.790000
  O     75.749000    7.770000    1.070000
  C     72.359000    3.420000    2.200000
  O     72.239000    2.410000    1.570000
  N     74.199000    9.821000   -2.430000
  H     74.989000   10.401000   -2.250000
  C     74.129000    8.961000   -3.620000
  H     73.129000    8.571000   -3.680000
  C     74.359000    9.741000   -4.990000
  H     75.369000   10.221000   -5.030000
  H     73.639000   10.581000   -5.050000
  C     74.309000    8.891000   -6.260000
  H     73.369000    8.301000   -6.320000
  H     75.089000    8.111000   -6.180000
  C     74.509000    9.701000   -7.510000
  H     73.549000   10.211000   -7.750000
  H     75.349000   10.411000   -7.340000
  C     74.999000    8.971000   -8.780000
  H     74.389000    8.071000   -9.030000
  H     76.079000    8.751000   -8.730000
  N     74.839000    9.891000   -9.970000
  H     73.859000    9.981000  -10.290000
  H     75.209000   10.821000   -9.710000
  H     75.489000    9.631000  -10.740000
  C     75.019000    7.761000   -3.460000
  O     76.269000    7.781000   -3.630000
  O     74.559000    6.631000   -3.190000
  N     65.789000    3.761000   -4.770000
  H     64.829000    3.991000   -4.880000
  C     66.629000    4.891000   -5.070000
  H     67.649000    4.581000   -4.900000
  C     66.469000    5.391000   -6.520000
  H     65.409000    5.521000   -6.840000
  H     66.869000    4.471000   -7.010000
  C     67.369000    6.551000   -6.980000
  O     67.139000    7.141000   -8.050000
  O     68.449000    6.741000   -6.390000
  C     66.149000    5.981000   -4.150000
  O     65.029000    6.451000   -4.340000
  N     70.569000    7.430000    4.380000
  H     71.059000    8.290000    4.260000
  C     69.700000    7.030000    3.240000
  H     68.740000    6.790000    3.670000
  C     69.460000    8.250000    2.240000
  H     68.730000    8.000000    1.440000
  H     70.449000    8.550000    1.840000
  N     69.550000   10.140000    3.760000
  C     68.850000    9.500000    2.820000
  C     68.870000   11.250000    4.020000
  H     69.100000   11.900000    4.860000
  N     67.690000   11.380000    3.250000
  H     67.160000   12.230000    3.220000
  C     67.650000   10.210000    2.550000
  H     66.780000    9.880000    2.000000
  C     70.339000    5.790000    2.490000
  O     69.730000    4.780000    2.230000
  N     81.249000    3.280000    8.360000
  H     80.469000    3.620000    8.880000
  C     80.909000    2.760000    7.050000
  H     81.519000    1.900000    6.840000
  C     79.329000    2.580000    6.970000
  H     79.019000    2.300000    5.940000
  H     78.739000    3.430000    7.370000
  C     78.859000    1.340000    7.690000
  O     79.639000    0.560000    8.290000
  O     77.629000    1.170000    7.710000
  C     81.179000    3.690000    5.910000
  O     81.299000    3.240000    4.770000

----------------------------
CARTESIAN COORDINATES (A.U.)
----------------------------
  NO LB      ZA    FRAG     MASS         X           Y           Z
   0 Fe   26.0000    0    55.850   77.800025   77.781128   88.968306
   1 N     7.0000    0    14.007  135.378091   11.130487    4.062911
   2 H     1.0000    0     1.008  136.341851   12.698960    4.440856
   3 C     6.0000    0    12.011  136.700899    9.108480    2.815692
   4 H     1.0000    0     1.008  135.661549    8.787227    1.077144
   5 C     6.0000    0    12.011  139.516591    9.713192    2.324363
   6 H     1.0000    0     1.008  140.329173    8.201411    1.133836
   7 H     1.0000    0     1.008  140.593735    9.883268    4.119603
   8 C     6.0000    0    12.011  139.800050   11.961966    0.434637
   9 H     1.0000    0     1.008  138.307166   13.435953    0.623610
  10 H     1.0000    0     1.008  139.403207   11.075685   -1.417295
  11 C     6.0000    0    12.011  142.521255   13.133597    0.302356
  12 O     8.0000    0    15.999  143.995242   12.700849   -1.492884
  13 O     8.0000    0    15.999  143.144865   14.683172    2.022007
  14 C     6.0000    0    12.011  136.738693    6.462863    4.157397
  15 O     8.0000    0    15.999  136.511926    4.554240    2.966870
  16 N     7.0000    0    14.007  140.215789   18.559000   -4.592035
  17 H     1.0000    0     1.008  141.708673   19.655042   -4.251884
  18 C     6.0000    0    12.011  140.083509   16.933836   -6.840809
  19 H     1.0000    0     1.008  138.193782   16.196843   -6.954192
  20 C     6.0000    0    12.011  140.518146   18.407822   -9.429733
  21 H     1.0000    0     1.008  142.426769   19.314891   -9.505322
  22 H     1.0000    0     1.008  139.157543   19.995192   -9.543117
  23 C     6.0000    0    12.011  140.423659   16.801555  -11.829686
  24 H     1.0000    0     1.008  138.647317   15.686617  -11.943069
  25 H     1.0000    0     1.008  141.897646   15.327569  -11.678508
  26 C     6.0000    0    12.011  140.801605   18.332233  -14.191843
  27 H     1.0000    0     1.008  138.987467   19.295994  -14.645378
  28 H     1.0000    0     1.008  142.388974   19.673939  -13.870590
  29 C     6.0000    0    12.011  141.727570   16.952733  -16.591795
  30 H     1.0000    0     1.008  140.574837   15.251980  -17.064227
  31 H     1.0000    0     1.008  143.768475   16.536993  -16.497309
  32 N     7.0000    0    14.007  141.425214   18.691281  -18.840570
  33 H     1.0000    0     1.008  139.573283   18.861357  -19.445282
  34 H     1.0000    0     1.008  142.124413   20.448726  -18.349241
  35 H     1.0000    0     1.008  142.653536   18.199952  -20.295659
  36 C     6.0000    0    12.011  141.765365   14.666165   -6.538452
  37 O     8.0000    0    15.999  144.127523   14.703959   -6.859706
  38 O     8.0000    0    15.999  140.896091   12.530774   -6.028226
  39 N     7.0000    0    14.007  124.323193    7.107260   -9.013994
  40 H     1.0000    0     1.008  122.509056    7.541897   -9.221864
  41 C     6.0000    0    12.011  125.910563    9.242651   -9.580911
  42 H     1.0000    0     1.008  127.838083    8.656835   -9.259658
  43 C     6.0000    0    12.011  125.608206   10.187514  -12.321014
  44 H     1.0000    0     1.008  123.605097   10.433178  -12.925727
  45 H     1.0000    0     1.008  126.364097    8.448966  -13.246980
  46 C     6.0000    0    12.011  127.308960   12.379596  -13.190288
  47 O     8.0000    0    15.999  126.874323   13.494534  -15.212295
  48 O     8.0000    0    15.999  129.349864   12.738644  -12.075350
  49 C     6.0000    0    12.011  125.003494   11.302452   -7.842363
  50 O     8.0000    0    15.999  122.887001   12.190623   -8.201411
  51 N     7.0000    0    14.007  133.356084   14.040665    8.277000
  52 H     1.0000    0     1.008  134.282049   15.665830    8.050233
  53 C     6.0000    0    12.011  131.713912   13.284775    6.122713
  54 H     1.0000    0     1.008  129.899774   12.831240    6.935295
  55 C     6.0000    0    12.011  131.260377   15.590241    4.232987
  56 H     1.0000    0     1.008  129.880877   15.117809    2.721206
  57 H     1.0000    0     1.008  133.129316   16.157158    3.477096
  58 N     7.0000    0    14.007  131.430453   19.161823    7.105370
  59 C     6.0000    0    12.011  130.107644   17.952398    5.329028
  60 C     6.0000    0    12.011  130.145439   21.259419    7.596699
  61 H     1.0000    0     1.008  130.580076   22.487741    9.184069
  62 N     7.0000    0    14.007  127.915562   21.505083    6.141610
  63 H     1.0000    0     1.008  126.914007   23.111351    6.084918
  64 C     6.0000    0    12.011  127.839973   19.294104    4.818802
  65 H     1.0000    0     1.008  126.195911   18.670494    3.779452
  66 C     6.0000    0    12.011  132.921447   10.941514    4.705418
  67 O     8.0000    0    15.999  131.770603    9.032891    4.214089
  68 N     7.0000    0    14.007  153.538359    6.198302   15.798110
  69 H     1.0000    0     1.008  152.064372    6.840809   16.780768
  70 C     6.0000    0    12.011  152.895852    5.215644   13.322569
  71 H     1.0000    0     1.008  154.048585    3.590480   12.925727
  72 C     6.0000    0    12.011  149.910084    4.875493   13.171391
  73 H     1.0000    0     1.008  149.324269    4.346370   11.224973
  74 H     1.0000    0     1.008  148.795146    6.481761   13.927282
  75 C     6.0000    0    12.011  149.021913    2.532233   14.531994
  76 O     8.0000    0    15.999  150.495900    1.058247   15.665830
  77 O     8.0000    0    15.999  146.697550    2.210980   14.569788
  78 C     6.0000    0    12.011  153.406078    6.973089   11.168281
  79 O     8.0000    0    15.999  153.632845    6.122713    9.013994

--------------------------------
INTERNAL COORDINATES (ANGSTROEM)
--------------------------------
 Fe     0   0   0     0.000000000000     0.00000000     0.00000000
 N      1   0   0    64.738224882985     0.00000000     0.00000000
 H      2   1   0     0.994484791236    69.33445211     0.00000000
 C      2   1   3     1.438923208514   162.25434973   116.50428198
 H      4   2   1     1.085264944610   104.99714497   129.86261433
 C      4   2   1     1.545994825347   113.08374557   252.53893481
 H      6   4   2     1.105350623106   108.72177953   187.88680810
 H      6   4   2     1.111530476415   111.54648012    66.09293827
 C      6   4   2     1.561601741802   110.97758001   295.26246043
 H      9   6   4     1.114674840480   114.06135361    34.89820928
 H      9   6   4     1.106553658889   103.05702136   282.86816710
 C      9   6   4     1.569362928070   114.69291972   166.25678469
 O     12   9   6     1.250336354746   122.27226403   103.84633678
 O     12   9   6     1.268621298891   117.51921226   279.63213255
 C      4   2   1     1.569872606296   117.50983696    14.29919072
 O     15   4   2     1.196411300515   120.89146720   140.03422713
 N     10   9   6     3.998402305922   103.50308112   179.15234086
 H     17  10   9     0.996443676281   118.04919107   286.81012546
 C     17  10   9     1.469897955642    98.63337026    59.81621484
 H     19  17  10     1.075034883155   107.56187511    58.84097862
 C     19  17  10     1.593172934744   113.75660632   175.05579187
 H     21  19  17     1.118972743189   111.78117803    60.81068462
 H     21  19  17     1.107971118757   108.90083516   305.21111693
 C     21  19  17     1.529019293534   115.93541508   179.47555772
 H     24  21  19     1.111440506730   111.56751302    53.59563100
 H     24  21  19     1.105983725016   107.99396135   301.02071486
 C     24  21  19     1.502863932630   112.76010714   178.93002313
 H     27  24  21     1.113238518917   108.14771056   281.04730527
 H     27  24  21     1.112924076476   108.49583346    44.01214046
 C     27  24  21     1.544635879423   118.12248677   157.78759169
 H     30  27  24     1.115616421536   113.08251956    51.41754791
 H     30  27  24     1.103313192163   111.56152542   283.25891034
 N     30  27  24     1.512646687102   109.01591980   167.63794837
 H     33  30  27     1.034842983259   113.34911274   284.43716449
 H     33  30  27     1.034117981664   108.13941800    46.39156134
 H     33  30  27     1.040672859260   111.35003966   156.24446512
 C     19  17  10     1.502564474490   110.66144730   304.07788261
 O     37  19  17     1.261665565830   124.04445462   280.77208171
 O     37  19  17     1.249559922533   121.81497853   103.50514010
 N      5   4   2     8.081207892388   162.49114585   320.14184469
 H     40   5   4     0.993277403347   139.93322103    19.61030167
 C     40   5   4     1.439618004889    67.55069927   116.06391574
 H     42  40   5     1.079536937765   107.04314600    41.47428202
 C     42  40   5     1.542108945568   112.94837146   162.47703182
 H     44  42  40     1.114854250564   113.97546922    48.10429048
 H     44  42  40     1.116467643956    96.21860917   295.11413781
 C     44  42  40     1.538570765353   117.70260281   183.03526281
 O     47  44  42     1.243342269852   120.45462307   191.97733288
 O     47  44  42     1.245230902283   118.73244221    23.95272273
 C     42  40   5     1.504958471188   104.77429202   279.62640606
 O     50  42  40     1.229390092688   118.22795762   292.05474411
 N      3   2   1     2.668595136022    94.09468744     6.97833070
 H     52   3   2     0.997045635866    81.19675577   193.45587995
 C     52   3   2     1.488207310827    72.03120286   313.72473504
 H     54  52   3     1.078934659745   105.90555015   159.22713193
 C     54  52   3     1.595619002143   111.24767869   274.68823106
 H     56  54  52     1.111485492483   112.20336998   185.88426070
 H     56  54  52     1.108206208248   107.39503156    61.40160683
 N     56  54  52     2.427055829601   101.38099944   328.88086665
 C     59  56  54     1.335365118610    33.53933450   234.04328971
 C     59  56  54     1.327441147471   139.01074825   226.24525443
 H     61  59  56     1.086738238952   122.89653877   174.00476731
 N     61  59  56     1.414991166050   113.41762258     4.32876435
 H     63  61  59     1.002147693706   122.36083729   190.72721401
 C     63  61  59     1.364001466275   102.99796517     3.80777640
 H     65  63  61     1.080879271704   123.13574953   167.68029477
 C      2   1   3     1.347442021016    53.93030792   199.30907155
 O     67   2   1     1.207717268238   119.62000869   200.37818662
 N      8   6   4     9.429602324595   156.33639926   124.36504296
 H     69   8   6     0.997196068985    72.72465968   206.10277519
 C     69   8   6     1.449862062405    46.50071655   358.60868536
 H     71  69   8     1.075081392268   109.28912234   188.59755965
 C     71  69   8     1.592231139000   108.58108042   318.01276823
 H     73  71  69     1.111485492483   110.59761782   173.15131110
 H     73  71  69     1.109324118551   115.02610184    44.68194447
 C     73  71  69     1.508940025316   112.21047813   282.09030976
 O     76  73  71     1.255706972187   123.02254848     0.72518331
 O     76  73  71     1.241853453512   115.38395754   177.26382957
 C     71  69   8     1.495794103478   115.04285418    71.77231241
 O     79  71  69     1.231462545106   119.73072865   159.04782066

---------------------------
INTERNAL COORDINATES (A.U.)
---------------------------
 Fe     0   0   0     0.000000000000     0.00000000     0.00000000
 N      1   0   0   122.337515425049     0.00000000     0.00000000
 H      2   1   0     1.879303899786    69.33445211     0.00000000
 C      2   1   3     2.719170791835   162.25434973   116.50428198
 H      4   2   1     2.050853528059   104.99714497   129.86261433
 C      4   2   1     2.921506824365   113.08374557   252.53893481
 H      6   4   2     2.088809959629   108.72177953   187.88680810
 H      6   4   2     2.100488189932   111.54648012    66.09293827
 C      6   4   2     2.950999622261   110.97758001   295.26246043
 H      9   6   4     2.106430176880   114.06135361    34.89820928
 H      9   6   4     2.091083367788   103.05702136   282.86816710
 C      9   6   4     2.965666138781   114.69291972   166.25678469
 O     12   9   6     2.362793285756   122.27226403   103.84633678
 O     12   9   6     2.397346822564   117.51921226   279.63213255
 C      4   2   1     2.966629291045   117.50983696    14.29919072
 O     15   4   2     2.260889701502   120.89146720   140.03422713
 N     10   9   6     7.555885331431   103.50308112   179.15234086
 H     17  10   9     1.883005656048   118.04919107   286.81012546
 C     17  10   9     2.777704580974    98.63337026    59.81621484
 H     19  17  10     2.031521513575   107.56187511    58.84097862
 C     19  17  10     3.010660530641   113.75660632   175.05579187
 H     21  19  17     2.114552035950   111.78117803    60.81068462
 H     21  19  17     2.093761978745   108.90083516   305.21111693
 C     21  19  17     2.889427718261   115.93541508   179.47555772
 H     24  21  19     2.100318171866   111.56751302    53.59563100
 H     24  21  19     2.090006348854   107.99396135   301.02071486
 C     24  21  19     2.840001249219   112.76010714   178.93002313
 H     27  24  21     2.103715922485   108.14771056   281.04730527
 H     27  24  21     2.103121712387   108.49583346    44.01214046
 C     27  24  21     2.918938788738   118.12248677   157.78759169
 H     30  27  24     2.108209507208   113.08251956    51.41754791
 H     30  27  24     2.084959773130   111.56152542   283.25891034
 N     30  27  24     2.858487976006   109.01591980   167.63794837
 H     33  30  27     1.955569829969   113.34911274   284.43716449
 H     33  30  27     1.954199775508   108.13941800    46.39156134
 H     33  30  27     1.966586699006   111.35003966   156.24446512
 C     19  17  10     2.839435355346   110.66144730   304.07788261
 O     37  19  17     2.384202392017   124.04445462   280.77208171
 O     37  19  17     2.361326041511   121.81497853   103.50514010
 N      5   4   2    15.271269747897   162.49114585   320.14184469
 H     40   5   4     1.877022267339   139.93322103    19.61030167
 C     40   5   4     2.720483766702    67.55069927   116.06391574
 H     42  40   5     2.040029163829   107.04314600    41.47428202
 C     42  40   5     2.914163575793   112.94837146   162.47703182
 H     44  42  40     2.106769212803   113.97546922    48.10429048
 H     44  42  40     2.109818084461    96.21860917   295.11413781
 C     44  42  40     2.907477384175   117.70260281   183.03526281
 O     47  44  42     2.349576380748   120.45462307   191.97733288
 O     47  44  42     2.353145378810   118.73244221    23.95272273
 C     42  40   5     2.843959353470   104.77429202   279.62640606
 O     50  42  40     2.323210586937   118.22795762   292.05474411
 N      3   2   1     5.042913969396    94.09468744     6.97833070
 H     52   3   2     1.884143194809    81.19675577   193.45587995
 C     52   3   2     2.812304247963    72.03120286   313.72473504
 H     54  52   3     2.038891023314   105.90555015   159.22713193
 C     54  52   3     3.015282928131   111.24767869   274.68823106
 H     56  54  52     2.100403182619   112.20336998   185.88426070
 H     56  54  52     2.094206233501   107.39503156    61.40160683
 N     56  54  52     4.586470829683   101.38099944   328.88086665
 C     59  56  54     2.523474362964    33.53933450   234.04328971
 C     59  56  54     2.508500227619   139.01074825   226.24525443
 H     61  59  56     2.053637650879   122.89653877   174.00476731
 N     61  59  56     2.673945785753   113.41762258     4.32876435
 H     63  61  59     1.893784686845   122.36083729   190.72721401
 C     63  61  59     2.577589217527   102.99796517     3.80777640
 H     65  63  61     2.042565807353   123.13574953   167.68029477
 C      2   1   3     2.546296401058    53.93030792   199.30907155
 O     67   2   1     2.282254884177   119.62000869   200.37818662
 N      8   6   4    17.819365945271   156.33639926   124.36504296
 H     69   8   6     1.884427472205    72.72465968   206.10277519
 C     69   8   6     2.739842229907    46.50071655   358.60868536
 H     71  69   8     2.031609403060   109.28912234   188.59755965
 C     71  69   8     3.008880794611   108.58108042   318.01276823
 H     73  71  69     2.100403182619   110.59761782   173.15131110
 H     73  71  69     2.096318777816   115.02610184    44.68194447
 C     73  71  69     2.851483400359   112.21047813   282.09030976
 O     76  73  71     2.372942281890   123.02254848     0.72518331
 O     76  73  71     2.346762925602   115.38395754   177.26382957
 C     71  69   8     2.826641208308   115.04285418    71.77231241
 O     79  71  69     2.327126954433   119.73072865   159.04782066

---------------------
BASIS SET INFORMATION
---------------------
There are 5 groups of distinct atoms

 Group   1 Type Fe  : 17s11p7d1f contracted to 6s4p4d1f pattern {842111/6311/4111/1}
 Group   2 Type N   : 11s6p2d1f contracted to 5s3p2d1f pattern {62111/411/11/1}
 Group   3 Type H   : 5s1p contracted to 3s1p pattern {311/1}
 Group   4 Type C   : 11s6p2d1f contracted to 5s3p2d1f pattern {62111/411/11/1}
 Group   5 Type O   : 11s6p2d1f contracted to 5s3p2d1f pattern {62111/411/11/1}

Atom   0Fe   basis set group =>   1
Atom   1N    basis set group =>   2
Atom   2H    basis set group =>   3
Atom   3C    basis set group =>   4
Atom   4H    basis set group =>   3
Atom   5C    basis set group =>   4
Atom   6H    basis set group =>   3
Atom   7H    basis set group =>   3
Atom   8C    basis set group =>   4
Atom   9H    basis set group =>   3
Atom  10H    basis set group =>   3
Atom  11C    basis set group =>   4
Atom  12O    basis set group =>   5
Atom  13O    basis set group =>   5
Atom  14C    basis set group =>   4
Atom  15O    basis set group =>   5
Atom  16N    basis set group =>   2
Atom  17H    basis set group =>   3
Atom  18C    basis set group =>   4
Atom  19H    basis set group =>   3
Atom  20C    basis set group =>   4
Atom  21H    basis set group =>   3
Atom  22H    basis set group =>   3
Atom  23C    basis set group =>   4
Atom  24H    basis set group =>   3
Atom  25H    basis set group =>   3
Atom  26C    basis set group =>   4
Atom  27H    basis set group =>   3
Atom  28H    basis set group =>   3
Atom  29C    basis set group =>   4
Atom  30H    basis set group =>   3
Atom  31H    basis set group =>   3
Atom  32N    basis set group =>   2
Atom  33H    basis set group =>   3
Atom  34H    basis set group =>   3
Atom  35H    basis set group =>   3
Atom  36C    basis set group =>   4
Atom  37O    basis set group =>   5
Atom  38O    basis set group =>   5
Atom  39N    basis set group =>   2
Atom  40H    basis set group =>   3
Atom  41C    basis set group =>   4
Atom  42H    basis set group =>   3
Atom  43C    basis set group =>   4
Atom  44H    basis set group =>   3
Atom  45H    basis set group =>   3
Atom  46C    basis set group =>   4
Atom  47O    basis set group =>   5
Atom  48O    basis set group =>   5
Atom  49C    basis set group =>   4
Atom  50O    basis set group =>   5
Atom  51N    basis set group =>   2
Atom  52H    basis set group =>   3
Atom  53C    basis set group =>   4
Atom  54H    basis set group =>   3
Atom  55C    basis set group =>   4
Atom  56H    basis set group =>   3
Atom  57H    basis set group =>   3
Atom  58N    basis set group =>   2
Atom  59C    basis set group =>   4
Atom  60C    basis set group =>   4
Atom  61H    basis set group =>   3
Atom  62N    basis set group =>   2
Atom  63H    basis set group =>   3
Atom  64C    basis set group =>   4
Atom  65H    basis set group =>   3
Atom  66C    basis set group =>   4
Atom  67O    basis set group =>   5
Atom  68N    basis set group =>   2
Atom  69H    basis set group =>   3
Atom  70C    basis set group =>   4
Atom  71H    basis set group =>   3
Atom  72C    basis set group =>   4
Atom  73H    basis set group =>   3
Atom  74H    basis set group =>   3
Atom  75C    basis set group =>   4
Atom  76O    basis set group =>   5
Atom  77O    basis set group =>   5
Atom  78C    basis set group =>   4
Atom  79O    basis set group =>   5
---------------------------------
AUXILIARY/J BASIS SET INFORMATION
---------------------------------
There are 5 groups of distinct atoms

 Group   1 Type Fe  : 19s5p5d3f3g contracted to 8s5p5d2f3g pattern {121111111/11111/11111/21/111}
 Group   2 Type N   : 12s5p4d2f1g contracted to 6s4p3d1f1g pattern {711111/2111/211/2/1}
 Group   3 Type H   : 5s2p1d contracted to 3s1p1d pattern {311/2/1}
 Group   4 Type C   : 12s5p4d2f1g contracted to 6s4p3d1f1g pattern {711111/2111/211/2/1}
 Group   5 Type O   : 12s5p4d2f1g contracted to 6s4p3d1f1g pattern {711111/2111/211/2/1}

Atom   0Fe   basis set group =>   1
Atom   1N    basis set group =>   2
Atom   2H    basis set group =>   3
Atom   3C    basis set group =>   4
Atom   4H    basis set group =>   3
Atom   5C    basis set group =>   4
Atom   6H    basis set group =>   3
Atom   7H    basis set group =>   3
Atom   8C    basis set group =>   4
Atom   9H    basis set group =>   3
Atom  10H    basis set group =>   3
Atom  11C    basis set group =>   4
Atom  12O    basis set group =>   5
Atom  13O    basis set group =>   5
Atom  14C    basis set group =>   4
Atom  15O    basis set group =>   5
Atom  16N    basis set group =>   2
Atom  17H    basis set group =>   3
Atom  18C    basis set group =>   4
Atom  19H    basis set group =>   3
Atom  20C    basis set group =>   4
Atom  21H    basis set group =>   3
Atom  22H    basis set group =>   3
Atom  23C    basis set group =>   4
Atom  24H    basis set group =>   3
Atom  25H    basis set group =>   3
Atom  26C    basis set group =>   4
Atom  27H    basis set group =>   3
Atom  28H    basis set group =>   3
Atom  29C    basis set group =>   4
Atom  30H    basis set group =>   3
Atom  31H    basis set group =>   3
Atom  32N    basis set group =>   2
Atom  33H    basis set group =>   3
Atom  34H    basis set group =>   3
Atom  35H    basis set group =>   3
Atom  36C    basis set group =>   4
Atom  37O    basis set group =>   5
Atom  38O    basis set group =>   5
Atom  39N    basis set group =>   2
Atom  40H    basis set group =>   3
Atom  41C    basis set group =>   4
Atom  42H    basis set group =>   3
Atom  43C    basis set group =>   4
Atom  44H    basis set group =>   3
Atom  45H    basis set group =>   3
Atom  46C    basis set group =>   4
Atom  47O    basis set group =>   5
Atom  48O    basis set group =>   5
Atom  49C    basis set group =>   4
Atom  50O    basis set group =>   5
Atom  51N    basis set group =>   2
Atom  52H    basis set group =>   3
Atom  53C    basis set group =>   4
Atom  54H    basis set group =>   3
Atom  55C    basis set group =>   4
Atom  56H    basis set group =>   3
Atom  57H    basis set group =>   3
Atom  58N    basis set group =>   2
Atom  59C    basis set group =>   4
Atom  60C    basis set group =>   4
Atom  61H    basis set group =>   3
Atom  62N    basis set group =>   2
Atom  63H    basis set group =>   3
Atom  64C    basis set group =>   4
Atom  65H    basis set group =>   3
Atom  66C    basis set group =>   4
Atom  67O    basis set group =>   5
Atom  68N    basis set group =>   2
Atom  69H    basis set group =>   3
Atom  70C    basis set group =>   4
Atom  71H    basis set group =>   3
Atom  72C    basis set group =>   4
Atom  73H    basis set group =>   3
Atom  74H    basis set group =>   3
Atom  75C    basis set group =>   4
Atom  76O    basis set group =>   5
Atom  77O    basis set group =>   5
Atom  78C    basis set group =>   4
Atom  79O    basis set group =>   5
------------------------------------------------------------------------------
                             ORCA STARTUP CALCULATIONS
                           -- RI-GTO INTEGRALS CHOSEN --
------------------------------------------------------------------------------
------------------------------------------------------------------------------
                   ___                                                        
                  /   \      - P O W E R E D   B Y -                         
                 /     \                                                     
                 |  |  |   _    _      __       _____    __    __             
                 |  |  |  | |  | |    /  \     |  _  \  |  |  /  |          
                  \  \/   | |  | |   /    \    | | | |  |  | /  /          
                 / \  \   | |__| |  /  /\  \   | |_| |  |  |/  /          
                |  |  |   |  __  | /  /__\  \  |    /   |      \           
                |  |  |   | |  | | |   __   |  |    \   |  |\   \          
                \     /   | |  | | |  |  |  |  | |\  \  |  | \   \       
                 \___/    |_|  |_| |__|  |__|  |_| \__\ |__|  \__/        
                                                                              
                      - O R C A' S   B I G   F R I E N D -                    
                                      &                                       
                       - I N T E G R A L  F E E D E R -                       
                                                                              
 v1 FN, 2020, v2 2021, v3 2022-2024                                           
------------------------------------------------------------------------------


----------------------
SHARK INTEGRAL PACKAGE
----------------------

Number of atoms                             ...     80
Number of basis functions                   ...   1644
Number of shells                            ...    646
Maximum angular momentum                    ...      3
Integral batch strategy                     ... SHARK/LIBINT Hybrid
RI-J (if used) integral strategy            ... SPLIT-RIJ (Revised 2003 algorithm where possible)
Printlevel                                  ...      1
Contraction scheme used                     ... SEGMENTED contraction
Prescreening option                         ... SCHWARTZ
   Thresh                                   ... 1.000e-10
   Tcut                                     ... 1.000e-11
   Tpresel                                  ... 1.000e-11 
Coulomb Range Separation                    ... NOT USED
Exchange Range Separation                   ... NOT USED
Multipole approximations                    ... NOT USED
Finite Nucleus Model                        ... NOT USED
CABS basis                                  ... NOT available
Auxiliary Coulomb fitting basis             ... AVAILABLE
   # of basis functions in Aux-J            ...   2668
   # of shells in Aux-J                     ...    868
   Maximum angular momentum in Aux-J        ...      4
Auxiliary J/K fitting basis                 ... NOT available
Auxiliary Correlation fitting basis         ... NOT available
Auxiliary 'external' fitting basis          ... NOT available

Checking pre-screening integrals            ... done (  0.0 sec) Dimension = 646
   => SHARK Basis and OBASIS are compatible. Storing Pre-screening
Shell pair information
Shell pair cut-off parameter TPreSel        ...   1.0e-11
Total number of shell pairs                 ...    208981
Shell pairs after pre-screening             ...     56949
Total number of primitive shell pairs       ...    651521
Primitive shell pairs kept                  ...    111283
          la=0 lb=0:  15381 shell pairs
          la=1 lb=0:  17269 shell pairs
          la=1 lb=1:   4931 shell pairs
          la=2 lb=0:   7556 shell pairs
          la=2 lb=1:   4278 shell pairs
          la=2 lb=2:    936 shell pairs
          la=3 lb=0:   3519 shell pairs
          la=3 lb=1:   2024 shell pairs
          la=3 lb=2:    837 shell pairs
          la=3 lb=3:    218 shell pairs

Checking whether 4 symmetric matrices of dimension 1644 fit in memory
:Max Core in MB      =   2000.00
 MB in use           =     71.64
 MB left             =   1928.36
 MB needed           =     41.27
 Data fit in memory  = YES
Calculating RI/J V-Matrix + Cholesky decomp.... done (  0.3 sec)
Calculating Nuclear repulsion               ... done (  0.0 sec) ENN=   4669.649802406214 Eh

Diagonalization of the overlap matrix:
Smallest eigenvalue                        ... 4.182e-05
Time for diagonalization                   ...    0.684 sec
Threshold for overlap eigenvalues          ... 1.000e-07
Number of eigenvalues below threshold      ... 0
Time for construction of square roots      ...    0.437 sec
Total time needed                          ...    1.128 sec

-------------------
DFT GRID GENERATION
-------------------

General Integration Accuracy     IntAcc      ... 4.388
Radial Grid Type                 RadialGrid  ... OptM3 with GC (2021)
Angular Grid (max. ang.)         AngularGrid ... 4 (Lebedev-302)
Angular grid pruning method      GridPruning ... 4 (adaptive)
Weight generation scheme         WeightScheme... mBecke (2022)
Basis function cutoff            BFCut       ... 1.0000e-10
Integration weight cutoff        WCut        ... 1.0000e-14
Partially contracted basis set               ... off
Rotationally invariant grid construction     ... off
Angular grids for H and He will be reduced by one unit
Core-polarized basis detected: some atoms will have their core
                               angular grid increased.

Total number of grid points                  ...   391336
Total number of batches                      ...     6151
Average number of points per batch           ...       63
Average number of grid points per atom       ...     4892

--------------------
COSX GRID GENERATION
--------------------

GRIDX 1
-------
General Integration Accuracy     IntAcc      ... 3.816
Radial Grid Type                 RadialGrid  ... OptM3 with GC (2021)
Angular Grid (max. ang.)         AngularGrid ... 1 (Lebedev-50)
Angular grid pruning method      GridPruning ... 4 (adaptive)
Weight generation scheme         WeightScheme... mBecke (2022)
Basis function cutoff            BFCut       ... 1.0000e-10
Integration weight cutoff        WCut        ... 1.0000e-14
Partially contracted basis set               ... on
Rotationally invariant grid construction     ... off
Angular grids for H and He will be reduced by one unit
Core-polarized basis detected: some atoms will have their core
                               angular grid increased.

Total number of grid points                  ...    54495
Total number of batches                      ...      471
Average number of points per batch           ...      115
Average number of grid points per atom       ...      681
UseSFitting                                  ... on

GRIDX 2
-------
General Integration Accuracy     IntAcc      ... 4.020
Radial Grid Type                 RadialGrid  ... OptM3 with GC (2021)
Angular Grid (max. ang.)         AngularGrid ... 2 (Lebedev-110)
Angular grid pruning method      GridPruning ... 4 (adaptive)
Weight generation scheme         WeightScheme... mBecke (2022)
Basis function cutoff            BFCut       ... 1.0000e-10
Integration weight cutoff        WCut        ... 1.0000e-14
Partially contracted basis set               ... on
Rotationally invariant grid construction     ... off
Angular grids for H and He will be reduced by one unit
Core-polarized basis detected: some atoms will have their core
                               angular grid increased.

Total number of grid points                  ...   111644
Total number of batches                      ...      915
Average number of points per batch           ...      122
Average number of grid points per atom       ...     1396
UseSFitting                                  ... on

GRIDX 3
-------
General Integration Accuracy     IntAcc      ... 4.338
Radial Grid Type                 RadialGrid  ... OptM3 with GC (2021)
Angular Grid (max. ang.)         AngularGrid ... 3 (Lebedev-194)
Angular grid pruning method      GridPruning ... 4 (adaptive)
Weight generation scheme         WeightScheme... mBecke (2022)
Basis function cutoff            BFCut       ... 1.0000e-10
Integration weight cutoff        WCut        ... 1.0000e-14
Partially contracted basis set               ... on
Rotationally invariant grid construction     ... off
Angular grids for H and He will be reduced by one unit
Core-polarized basis detected: some atoms will have their core
                               angular grid increased.

Total number of grid points                  ...   236713
Total number of batches                      ...     1892
Average number of points per batch           ...      125
Average number of grid points per atom       ...     2959
UseSFitting                                  ... on
Grids setup in  12.2 sec
Initializing property integral containers    ... done (  0.0 sec)

SHARK setup successfully completed in  15.4 seconds

Maximum memory used throughout the entire STARTUP-calculation: 283.4 MB
-------------------------------------------------------------------------------
                                 ORCA GUESS
                   Start orbitals & Density for SCF / CASSCF
-------------------------------------------------------------------------------

------------
SCF SETTINGS
------------
Hamiltonian:
 Density Functional     Method          .... DFT(GTOs)
 Exchange Functional    Exchange        .... B88
   X-Alpha parameter    XAlpha          ....  0.666667
   Becke's b parameter  XBeta           ....  0.004200
 Correlation Functional Correlation     .... LYP
 LDA part of GGA corr.  LDAOpt          .... VWN-5
 Gradients option       PostSCFGGA      .... off
 Hybrid DFT is turned on
   Fraction HF Exchange ScalHFX         ....  0.200000
   Scaling of DF-GGA-X  ScalDFX         ....  0.720000
   Scaling of DF-GGA-C  ScalDFC         ....  0.810000
   Scaling of DF-LDA-C  ScalLDAC        ....  1.000000
   Perturbative correction              ....  0.000000
   NL short-range parameter             ....  4.800000
 RI-approximation to the Coulomb term is turned on
   Number of AuxJ basis functions       .... 2668
   RIJ-COSX (HFX calculated with COS-X)).... on


General Settings:
 Integral files         IntName         .... qm_sp_only
 Hartree-Fock type      HFTyp           .... UHF
 Total Charge           Charge          ....    0
 Multiplicity           Mult            ....    5
 Number of Electrons    NEL             ....  362
 Basis Dimension        Dim             .... 1644
 Nuclear Repulsion      ENuc            ....   4669.6498024062 Eh

Convergence Acceleration:
 AO-DIIS                CNVDIIS         .... on
   Start iteration      DIISMaxIt       ....    12
   Startup error        DIISStart       ....  0.200000
   # of expansion vecs  DIISMaxEq       ....     5
   Bias factor          DIISBfac        ....   1.050
   Max. coefficient     DIISMaxC        ....  10.000
 MO-DIIS                CNVKDIIS        .... off
 Trust-Rad. Augm. Hess. CNVTRAH         .... auto
   Auto Start mean grad. ratio tolernc. ....  1.125000
   Auto Start start iteration           ....    50
   Auto Start num. interpolation iter.  ....    10
   Max. Number of Micro iterations      ....    24
   Max. Number of Macro iterations      .... Maxiter - #DIIS iter
   Number of Davidson start vectors     ....     2
   Converg. threshold    (grad. norm)   ....   5.000e-05
   Grad. Scal. Fac. for Micro threshold ....   0.100
   Minimum threshold for Micro iter.    ....   1.000e-02
   NR start threshold (gradient norm)   ....   1.000e-04
   Initial trust radius                 ....   0.400
   Minimum AH scaling param. (alpha)    ....   1.000
   Maximum AH scaling param. (alpha)    .... 1000.000
   Quad. conv. algorithm                .... NR
   White noise on init. David. guess    .... on
   Maximum white noise                  ....   0.010
   Pseudo random numbers                .... off
   Inactive MOs                         .... canonical
   Orbital update algorithm             .... Taylor
   Preconditioner                       .... Diag
   Full preconditioner red. dimension   ....   250
 SOSCF                 CNVSOSCF           .... on
   Start iteration     SOSCFMaxIt         ....   150
   Startup grad/error  SOSCFStart         ....  0.003300
   Hessian update      SOSCFHessUp        .... L-BFGS
   Autom. constraints  SOSCFAutoConstrain .... off
 Level Shifting         CNVShift        .... on
   Level shift para.    LevelShift      ....    0.2500
   Turn off err/grad.   ShiftErr        ....    0.0010
 Zerner damping         CNVZerner       .... off
 Static damping         CNVDamp         .... on
   Fraction old density DampFac         ....    0.7000
   Max. Damping (<1)    DampMax         ....    0.9800
   Min. Damping (>=0)   DampMin         ....    0.0000
   Turn off err/grad.   DampErr         ....    0.1000

SCF Procedure:
 Maximum # iterations   MaxIter         ....   500
 SCF integral mode      SCFMode         .... Direct
   Integral package                     .... SHARK and LIBINT hybrid scheme
 Reset frequency        DirectResetFreq ....    20
 Integral Threshold     Thresh          ....  1.000e-10 Eh
 Primitive CutOff       TCut            ....  1.000e-11 Eh

Convergence Tolerance:
 Convergence Check Mode ConvCheckMode   .... Total+1el-Energy
 Convergence forced     ConvForced      .... 0
 Energy Change          TolE            ....  1.000e-06 Eh
 1-El. energy change                    ....  1.000e-03 Eh
 Orbital Gradient       TolG            ....  5.000e-05
 Orbital Rotation angle TolX            ....  5.000e-05
 DIIS Error             TolErr          ....  1.000e-06

------------------------------
INITIAL GUESS: MODEL POTENTIAL
------------------------------
Loading Hartree-Fock densities                     ... done
Calculating cut-offs                               ... done
Initializing the effective Hamiltonian             ... done
Setting up the integral package (SHARK)            ... done
Starting the Coulomb interaction                   ... done (   6.9 sec)
Making the grid                                    ... done (   1.3 sec)
Mapping shells                                     ... done
Starting the XC term evaluation                    ... done (   1.4 sec)
  promolecular density results
     # of electrons  =    361.987101684
     EX              =   -343.366534623
     EC              =    -12.736660169
     EX+EC           =   -356.103194793
Transforming the Hamiltonian                       ... done (   0.4 sec)
Diagonalizing the Hamiltonian                      ... done (   0.7 sec)
Back transforming the eigenvectors                 ... done (   0.2 sec)
Now organizing SCF variables                       ... done
                      ------------------
                      INITIAL GUESS DONE (  11.4 sec)
                      ------------------
             **** ENERGY FILE WAS UPDATED (qm_sp_only.en.tmp) ****
Finished Guess after  11.8 sec
Maximum memory used throughout the entire GUESS-calculation: 197.6 MB

-------------------------------------------------------------------------------------------
                                      ORCA LEAN-SCF
                              memory conserving SCF solver
-------------------------------------------------------------------------------------------

----------------------------------------D-I-I-S--------------------------------------------
Iteration    Energy (Eh)           Delta-E    RMSDP     MaxDP     DIISErr   Damp  Time(sec)
-------------------------------------------------------------------------------------------
               ***  Starting incremental Fock matrix formation  ***
    1    -3568.4037882116545006     0.00e+00  2.85e-03  9.56e-01  5.78e-01  0.700  99.3
Warning: op=0 Small HOMO/LUMO gap (  -7.037) - skipping pre-diagonalization
         LevelShift set to 1.000 Eh
         Will do a full diagonalization
    2    -3549.2360558515892990     1.92e+01  1.97e-02  1.46e+01  3.81e-01  0.700  50.5
    3    -3551.1258631226310172    -1.89e+00  5.82e-03  4.23e+00  3.24e-01  0.700  50.1
                               ***Turning on AO-DIIS***
    4    -3559.4290793398859023    -8.30e+00  4.45e-03  3.07e+00  1.93e-01  0.700  47.2
    5    -3559.0834470200143187     3.46e-01  3.54e-03  2.18e+00  2.26e-01  0.700  45.7
    6    -3556.9918716494330511     2.09e+00  2.83e-03  1.53e+00  2.15e-01  0.700  45.9
    7    -3556.8184265377922202     1.73e-01  2.50e-03  1.43e+00  2.02e-01  0.700  45.3
    8    -3554.5366049907688648     2.28e+00  2.18e-03  1.20e+00  2.14e-01  0.700  45.1
    9    -3552.0762899726496471     2.46e+00  2.78e-03  2.36e+00  2.68e-01  0.700  45.5
   10    -3554.8391626956736218    -2.76e+00  1.16e-02  1.09e+01  2.82e-01  0.700  46.6
   11    -3565.1943435000730460    -1.04e+01  7.35e-03  4.93e+00  2.36e-01  0.700  49.1
   12    -3558.3795921482405902     6.81e+00  5.55e-03  3.35e+00  2.40e-01  0.700  47.6
   13    -3544.9985677423765082     1.34e+01  4.79e-03  2.92e+00  4.65e-01  0.700  47.2
   14    -3531.5392312116882749     1.35e+01  4.38e-03  2.09e+00  7.14e-01  0.700  48.0
   15    -3520.3668994109548294     1.12e+01  6.65e-03  4.07e+00  9.19e-01  0.700  49.2
   16    -3509.7162646616579877     1.07e+01  5.34e-03  3.21e+00  1.05e+00  0.700  50.8
   17    -3534.0657512863081138    -2.43e+01  4.36e-03  2.38e+00  8.96e-01  0.700  49.6
   18    -3560.1289078468462321    -2.61e+01  3.48e-03  1.85e+00  2.94e-01  0.700  53.3
   19    -3565.4205074691408299    -5.29e+00  2.93e-03  1.49e+00  2.14e-01  0.700  52.1
   20    -3562.4649024977215959     2.96e+00  2.56e-03  1.42e+00  2.33e-01  0.700  49.0
               *** Restarting incremental Fock matrix formation ***
                             ****Resetting DIIS****
Warning: op=0 Small HOMO/LUMO gap (  -5.144) - skipping pre-diagonalization
         LevelShift set to 1.000 Eh
         Will do a full diagonalization
   21    -3558.5630976935817671     3.90e+00  2.94e-03  1.55e+00  3.45e-01  0.700  62.6
   22    -3552.4507992090339030     6.11e+00  1.61e-03  7.09e-01  1.75e-01  0.700  50.3
   23    -3556.3255938727170360    -3.87e+00  1.35e-03  8.15e-01  3.13e-01  0.700  49.3
   24    -3557.8460575122908267    -1.52e+00  1.17e-03  8.21e-01  4.09e-01  0.700  50.6
   25    -3558.5256036362270606    -6.80e-01  9.69e-04  6.33e-01  4.73e-01  0.700  46.0
   26    -3558.9227909301725958    -3.97e-01  6.54e-03  4.37e+00  5.53e-01  0.700  46.8
   27    -3553.4925921000512972     5.43e+00  6.54e-03  4.09e+00  2.51e-01  0.700  48.2
   28    -3518.6805456012680224     3.48e+01  5.54e-03  3.43e+00  2.93e-01  0.700  46.3
   29    -3494.7600812487298754     2.39e+01  4.92e-03  2.81e+00  4.06e-01  0.700  45.4
   30    -3493.0929638610368784     1.67e+00  5.39e-03  2.28e+00  5.50e-01  0.700  49.6
   31    -3504.2726176690885040    -1.12e+01  4.63e-03  2.86e+00  6.48e-01  0.700  49.6
   32    -3522.9548529553840126    -1.87e+01  6.58e-03  3.98e+00  6.87e-01  0.700  50.2
   33    -3550.2753259341343437    -2.73e+01  6.16e-03  3.91e+00  3.43e-01  0.700  51.1
   34    -3541.1487937656556824     9.13e+00  7.10e-03  4.84e+00  2.03e-01  0.700  49.1
   35    -3531.9922653397343311     9.16e+00  3.95e-03  2.05e+00  3.54e-01  0.700  49.0
   36    -3537.8470986160400571    -5.85e+00  3.95e-03  1.87e+00  5.08e-01  0.700  48.9
   37    -3540.0479056450940334    -2.20e+00  4.07e-03  2.25e+00  6.09e-01  0.700  48.6
   38    -3551.3277728127404771    -1.13e+01  5.07e-03  3.92e+00  3.69e-01  0.700  50.0
   39    -3554.5166545065267201    -3.19e+00  3.87e-03  2.83e+00  3.16e-01  0.700  50.8
   40    -3548.0437392250687481     6.47e+00  2.80e-03  2.01e+00  2.62e-01  0.700  49.8
               *** Restarting incremental Fock matrix formation ***
                             ****Resetting DIIS****
Warning: op=0 Small HOMO/LUMO gap (  -4.610) - skipping pre-diagonalization
         LevelShift set to 1.000 Eh
         Will do a full diagonalization
   41    -3550.9816650354414378    -2.94e+00  3.13e-02  3.25e+01  2.65e-01  0.700  64.0
   42    -3547.6948898585042116     3.29e+00  9.13e-03  9.51e+00  1.83e-01  0.700  53.7
   43    -3548.3904377545231910    -6.96e-01  6.87e-03  6.94e+00  3.30e-01  0.700  49.5
   44    -3547.2942505193777833     1.10e+00  5.36e-03  5.41e+00  4.26e-01  0.700  47.5
   45    -3546.3736806771385091     9.21e-01  4.22e-03  4.23e+00  4.84e-01  0.700  48.5
   46    -3546.6799644256307147    -3.06e-01  2.05e-02  1.30e+01  5.18e-01  0.700  50.2
   47    -3542.5643682464315134     4.12e+00  2.63e-02  1.83e+01  2.73e-01  0.700  50.8
   48    -3488.0299612424250881     5.45e+01  1.79e-02  1.04e+01  3.64e-01  0.700  48.1
   49    -3443.0121191473908766     4.50e+01  6.24e-03  2.50e+00  4.14e-01  0.700  48.8
   50    -3457.0503848380230920    -1.40e+01  1.24e-02  8.14e+00  5.51e-01  0.700  48.8

       ******************************************************************************
       ***                                                                        ***
       ***                               Auto-TRAH                                ***
       ***                               ---------                                ***
       *** the maximum gradient error decreased on average only by a factor   0.9 ***
       *** during the last  10 iterations                                         ***
       ***                                                                        ***
       ***               Leaving SCF to start the TRAH-SCF procedure              ***
       ***                                                                        ***
       ******************************************************************************

 --------------------------------------------------------------------------------------------
   Iter.        energy            ||Error||_2        Shift      TRadius  Mac/Mic        Rej.
 --------------------------------------------------------------------------------------------
    0      -3524.852575108182     6.902854e+00                     0.400 (TRAH MAcro)   No
WARNING: 45869 diagonal Hessian elements are negative!
WARNING : negative HOMO - LUMO gap : (op = alpha) -10.027087
WARNING : negative HOMO - LUMO gap : (op =  beta) -10.102058
WARNING : negative HOMO - LUMO gap : (op = alpha) -10.027087
WARNING : negative HOMO - LUMO gap : (op =  beta) -10.102058
    0     dE    -5.087370e+00     2.069348e-01    -1.4739e+01      0.400 (TRAH MIcro)
    0     dE    -5.089571e+00     6.706244e-03    -1.4790e+01      0.400 (TRAH MIcro)
    1      -3529.924859379232     5.853147e+00                     0.480 (TRAH MAcro)   No
WARNING: 42147 diagonal Hessian elements are negative!
WARNING : negative HOMO - LUMO gap : (op = alpha) -9.506596
WARNING : negative HOMO - LUMO gap : (op =  beta) -9.600651
WARNING : negative HOMO - LUMO gap : (op = alpha) -9.506596
WARNING : negative HOMO - LUMO gap : (op =  beta) -9.600651
    1     dE    -5.025879e+00     2.524515e-01    -1.0547e+01      0.469 (TRAH MIcro)
    1     dE    -5.052623e+00     1.155108e-02    -1.0557e+01      0.472 (TRAH MIcro)
    1     dE    -5.053252e+00     5.424089e-04    -1.0557e+01      0.472 (TRAH MIcro)
    2      -3534.938704351654     4.858567e+00                     0.576 (TRAH MAcro)   No
WARNING: 37811 diagonal Hessian elements are negative!
WARNING : negative HOMO - LUMO gap : (op = alpha) -8.975325
WARNING : negative HOMO - LUMO gap : (op =  beta) -9.077821
WARNING : negative HOMO - LUMO gap : (op = alpha) -8.975325
WARNING : negative HOMO - LUMO gap : (op =  beta) -9.077821
    2     dE    -5.022855e+00     3.530368e-01    -6.8861e+00      0.576 (TRAH MIcro)
    2     dE    -5.034044e+00     2.108122e-02    -7.0170e+00      0.576 (TRAH MIcro)
    2     dE    -5.033035e+00     3.220710e-02    -7.0171e+00      0.576 (TRAH MIcro)
    2     dE    -2.921529e+00     3.846821e-01    -1.3367e+01      0.322 (TRAH MIcro)
    2     dE    -2.911245e+00     1.322485e-02    -1.3412e+01      0.320 (TRAH MIcro)
    2     dE    -2.911291e+00     5.709437e-04    -1.3412e+01      0.320 (TRAH MIcro)
    3      -3537.838100698599     4.234519e+00                     0.691 (TRAH MAcro)   No
WARNING: 34907 diagonal Hessian elements are negative!
WARNING : negative HOMO - LUMO gap : (op = alpha) -8.654530
WARNING : negative HOMO - LUMO gap : (op =  beta) -8.753203
WARNING : negative HOMO - LUMO gap : (op = alpha) -8.654530
WARNING : negative HOMO - LUMO gap : (op =  beta) -8.753203
    3     dE    -5.108762e+00     4.631901e-01    -4.7322e+00      0.691 (TRAH MIcro)
    3     dE    -5.140613e+00     6.287604e-02    -4.9397e+00      0.691 (TRAH MIcro)
    3     dE    -2.517937e+00     4.331913e-01    -1.1572e+01      0.321 (TRAH MIcro)
    3     dE    -2.514618e+00     1.837712e-02    -1.1636e+01      0.318 (TRAH MIcro)
    3     dE    -2.514690e+00     9.640593e-04    -1.1636e+01      0.318 (TRAH MIcro)
    4      -3540.341308847251     3.651165e+00                     0.829 (TRAH MAcro)   No
WARNING: 32012 diagonal Hessian elements are negative!
WARNING : negative HOMO - LUMO gap : (op = alpha) -8.364577
WARNING : negative HOMO - LUMO gap : (op =  beta) -8.456967
WARNING : negative HOMO - LUMO gap : (op = alpha) -8.364577
WARNING : negative HOMO - LUMO gap : (op =  beta) -8.456967
    4     dE    -4.817021e+00     8.815238e-01    -2.9220e+00      0.805 (TRAH MIcro)
    4     dE    -5.089151e+00     4.093942e-01    -3.4630e+00      0.829 (TRAH MIcro)
    4     dE    -5.155017e+00     5.581695e-02    -3.5889e+00      0.829 (TRAH MIcro)
    4     dE    -5.157256e+00     2.719869e-02    -3.5372e+00      0.829 (TRAH MIcro)
    4     dE    -2.136536e+00     1.488215e-01    -9.9504e+00      0.316 (TRAH MIcro)
    4     dE    -2.137511e+00     6.819173e-03    -9.9591e+00      0.316 (TRAH MIcro)
    5      -3542.468998245809     3.101686e+00                     0.995 (TRAH MAcro)   No
WARNING: 29307 diagonal Hessian elements are negative!
WARNING : negative HOMO - LUMO gap : (op = alpha) -8.102594
WARNING : negative HOMO - LUMO gap : (op =  beta) -8.188206
WARNING : negative HOMO - LUMO gap : (op = alpha) -8.102594
WARNING : negative HOMO - LUMO gap : (op =  beta) -8.188206
    5     dE    -3.902653e+00     7.996083e-01    -2.4166e+00      0.784 (TRAH MIcro)
    5     dE    -4.852603e+00     7.048183e-01    -2.5367e+00      0.986 (TRAH MIcro)
    5     dE    -5.105277e+00     2.806933e-01    -2.7345e+00      0.995 (TRAH MIcro)
    5     dE    -4.858402e+00     2.743843e-01    -2.8880e+00      0.942 (TRAH MIcro)
    5     dE    -3.857409e+00     3.695351e-01    -3.2136e+00      0.744 (TRAH MIcro)
    5     dE    -5.226813e+00     2.380706e-01    -2.9490e+00      0.995 (TRAH MIcro)
    5     dE    -1.786935e+00     1.371183e-01    -8.3781e+00      0.314 (TRAH MIcro)
    5     dE    -1.787067e+00     5.933188e-03    -8.3868e+00      0.313 (TRAH MIcro)
    6      -3544.248307068063     2.593660e+00                     1.194 (TRAH MAcro)   No
WARNING: 26788 diagonal Hessian elements are negative!
WARNING : negative HOMO - LUMO gap : (op = alpha) -7.867017
WARNING : negative HOMO - LUMO gap : (op =  beta) -7.946230
WARNING : negative HOMO - LUMO gap : (op = alpha) -7.867017
WARNING : negative HOMO - LUMO gap : (op =  beta) -7.946230
    6     dE    -3.051795e+00     7.885987e-01    -1.9475e+00      0.753 (TRAH MIcro)
    6     dE    -4.861066e+00     6.748959e-01    -2.0257e+00      1.194 (TRAH MIcro)
    6     dE    -5.128721e+00     5.715896e-01    -2.1927e+00      1.194 (TRAH MIcro)
    6     dE    -5.179001e+00     5.763376e-01    -2.2711e+00      1.194 (TRAH MIcro)
    6     dE    -5.850525e+00     1.945860e+00    -2.8825e+00      1.194 (TRAH MIcro)
    6     dE    -9.405172e-01     1.265971e-01    -1.1958e+01      0.192 (TRAH MIcro)
    6     dE    -9.434582e-01     4.537063e-03    -1.1972e+01      0.193 (TRAH MIcro)
    7      -3545.190459508823     2.299166e+00                     1.433 (TRAH MAcro)   No
WARNING: 25272 diagonal Hessian elements are negative!
WARNING : negative HOMO - LUMO gap : (op = alpha) -7.733011
WARNING : negative HOMO - LUMO gap : (op =  beta) -7.808266
WARNING : negative HOMO - LUMO gap : (op = alpha) -7.733011
WARNING : negative HOMO - LUMO gap : (op =  beta) -7.808266
    7     dE    -2.661538e+00     7.795044e-01    -1.7096e+00      0.746 (TRAH MIcro)
    7     dE    -5.499748e+00     7.721233e-01    -1.8029e+00      1.433 (TRAH MIcro)
    7     dE    -5.808292e+00     1.036851e+00    -1.9616e+00      1.433 (TRAH MIcro)
    7     dE    -1.075082e+01     4.073959e+00    -4.7278e+00      1.433 (TRAH MIcro)
    7     dE    -8.303622e-01     1.287929e-01    -1.0572e+01      0.192 (TRAH MIcro)
    7     dE    -8.336441e-01     4.976065e-03    -1.0588e+01      0.193 (TRAH MIcro)
    8      -3546.022931831057     2.031302e+00                     1.720 (TRAH MAcro)   No
WARNING: 23862 diagonal Hessian elements are negative!
WARNING : negative HOMO - LUMO gap : (op = alpha) -7.608417
WARNING : negative HOMO - LUMO gap : (op =  beta) -7.678920
WARNING : negative HOMO - LUMO gap : (op = alpha) -7.608417
WARNING : negative HOMO - LUMO gap : (op =  beta) -7.678920
    8     dE    -2.753622e+00     1.506659e+00    -1.6400e+00      0.824 (TRAH MIcro)
    8     dE    -1.342406e+01     4.984810e+00    -4.0833e+00      1.719 (TRAH MIcro)
    8     dE    -7.638406e-01     1.286503e-01    -9.3823e+00      0.200 (TRAH MIcro)
    8     dE    -7.660840e-01     5.432019e-03    -9.3993e+00      0.200 (TRAH MIcro)
    9      -3546.787467291216     1.865961e+00                     2.064 (TRAH MAcro)   No
WARNING: 22470 diagonal Hessian elements are negative!
WARNING : negative HOMO - LUMO gap : (op = alpha) -7.486630
WARNING : negative HOMO - LUMO gap : (op =  beta) -7.516729
WARNING : negative HOMO - LUMO gap : (op = alpha) -7.486630
WARNING : negative HOMO - LUMO gap : (op =  beta) -7.516729
    9     dE    -3.437715e+01     3.762355e-01    -7.7149e+00      2.064 (TRAH MIcro)
    9     dE    -3.439056e+01     5.664507e-02    -7.7311e+00      2.064 (TRAH MIcro)
    9     dE    -3.439089e+01     2.691763e-03    -7.7300e+00      2.064 (TRAH MIcro)
   10      -3552.508442895313     3.342503e+00                     1.383 (TRAH MAcro)   No
WARNING: 18654 diagonal Hessian elements are negative!
WARNING : negative HOMO - LUMO gap : (op = alpha) -6.371995
WARNING : negative HOMO - LUMO gap : (op =  beta) -6.328670
WARNING : negative HOMO - LUMO gap : (op = alpha) -6.371995
WARNING : negative HOMO - LUMO gap : (op =  beta) -6.328670
   10     dE    -1.348592e+01     4.175717e-01    -6.4903e+00      1.350 (TRAH MIcro)
   10     dE    -1.409230e+01     2.073496e-01    -6.5522e+00      1.383 (TRAH MIcro)
   10     dE    -1.409670e+01     1.187073e-02    -6.5427e+00      1.383 (TRAH MIcro)
   10     dE    -1.409671e+01     8.549906e-04    -6.5428e+00      1.383 (TRAH MIcro)
   11      -3560.990916671484     3.299688e+00                     1.383 (TRAH MAcro)   No
WARNING: 11896 diagonal Hessian elements are negative!
WARNING : negative HOMO - LUMO gap : (op = alpha) -4.456388
WARNING : negative HOMO - LUMO gap : (op =  beta) -4.447495
WARNING : negative HOMO - LUMO gap : (op = alpha) -4.456388
WARNING : negative HOMO - LUMO gap : (op =  beta) -4.447495
   11     dE    -1.207981e+01     1.203628e+00    -4.3766e+00      1.383 (TRAH MIcro)
   11     dE    -1.222944e+01     7.332488e-01    -4.6696e+00      1.383 (TRAH MIcro)
   11     dE    -1.230643e+01     6.303655e-02    -4.6564e+00      1.383 (TRAH MIcro)
   11     dE    -1.230735e+01     5.090588e-03    -4.6644e+00      1.383 (TRAH MIcro)
   12      -3568.900359245870     2.433600e+00                     1.383 (TRAH MAcro)   No
WARNING: 7094 diagonal Hessian elements are negative!
WARNING : negative HOMO - LUMO gap : (op = alpha) -2.203951
WARNING : negative HOMO - LUMO gap : (op =  beta) -2.150272
WARNING : negative HOMO - LUMO gap : (op = alpha) -2.203951
WARNING : negative HOMO - LUMO gap : (op =  beta) -2.150272
   12     dE    -4.442661e+00     1.135975e+00    -1.8918e+00      1.161 (TRAH MIcro)
   12     dE    -5.776048e+00     3.284236e-01    -2.0402e+00      1.383 (TRAH MIcro)
   12     dE    -5.788009e+00     3.575033e-01    -2.0799e+00      1.383 (TRAH MIcro)
   12     dE    -5.460127e+00     4.143806e-01    -2.1529e+00      1.320 (TRAH MIcro)
   12     dE    -3.637834e+00     6.294099e-01    -2.3224e+00      0.959 (TRAH MIcro)
   12     dE    -5.924357e+00     9.894440e-02    -2.1955e+00      1.383 (TRAH MIcro)
   12     dE    -5.934388e+00     1.568046e-02    -2.2016e+00      1.383 (TRAH MIcro)
   12     dE    -5.934483e+00     6.213589e-03    -2.2015e+00      1.383 (TRAH MIcro)
   13      -3572.684273546919     1.415409e+00                     1.383 (TRAH MAcro)   No
WARNING: 2316 diagonal Hessian elements are negative!
WARNING : negative HOMO - LUMO gap : (op = alpha) -1.131374
WARNING : negative HOMO - LUMO gap : (op =  beta) -1.105415
WARNING : negative HOMO - LUMO gap : (op = alpha) -1.131374
WARNING : negative HOMO - LUMO gap : (op =  beta) -1.105415
   13     dE    -1.431218e+00     5.459570e-01    -8.7992e-01      0.792 (TRAH MIcro)
   13     dE    -2.696122e+00     4.507219e-01    -9.3802e-01      1.383 (TRAH MIcro)
   13     dE    -2.763471e+00     1.652323e-01    -9.5163e-01      1.383 (TRAH MIcro)
   13     dE    -2.776172e+00     1.566107e-01    -9.5877e-01      1.383 (TRAH MIcro)
   13     dE    -2.827035e+00     4.658812e-01    -9.9473e-01      1.383 (TRAH MIcro)
   13     dE    -1.701949e+00     1.284508e-01    -1.1701e+00      0.899 (TRAH MIcro)
   13     dE    -1.579286e+00     4.322182e-02    -1.1746e+00      0.836 (TRAH MIcro)
   13     dE    -1.521080e+00     9.418658e-03    -1.1751e+00      0.805 (TRAH MIcro)
   14      -3574.086826550292     7.392790e-01                     1.659 (TRAH MAcro)   No
WARNING: 1098 diagonal Hessian elements are negative!
WARNING : negative HOMO - LUMO gap : (op = alpha) -0.633321
WARNING : negative HOMO - LUMO gap : (op =  beta) -0.804530
WARNING : negative HOMO - LUMO gap : (op = alpha) -0.633321
WARNING : negative HOMO - LUMO gap : (op =  beta) -0.804530
   14     dE    -1.408708e+00     5.387221e-01    -6.4097e-01      1.094 (TRAH MIcro)
   14     dE    -2.017656e+00     3.169759e-01    -6.8383e-01      1.397 (TRAH MIcro)
   14     dE    -2.057904e+00     7.928850e-02    -6.9411e-01      1.402 (TRAH MIcro)
   14     dE    -1.945530e+00     3.778867e-02    -6.9576e-01      1.340 (TRAH MIcro)
   14     dE    -1.931088e+00     1.597304e-02    -6.9600e-01      1.332 (TRAH MIcro)
   14     dE    -1.935798e+00     2.625176e-02    -6.9614e-01      1.334 (TRAH MIcro)
   14     dE    -1.878034e+00     1.307561e-01    -7.2797e-01      1.301 (TRAH MIcro)
   14     dE    -2.720064e+00     1.685605e-01    -7.6757e-01      1.659 (TRAH MIcro)
   14     dE    -1.315581e+00     1.381997e-01    -8.2962e-01      0.969 (TRAH MIcro)
   14     dE    -1.207605e+00     4.559031e-02    -8.3546e-01      0.894 (TRAH MIcro)
   14     dE    -1.189607e+00     1.303439e-02    -8.3605e-01      0.881 (TRAH MIcro)
   14     dE    -1.187093e+00     3.347853e-03    -8.3609e-01      0.879 (TRAH MIcro)
   15      -3575.051590397379     4.474931e-01                     1.991 (TRAH MAcro)   No
WARNING: 372 diagonal Hessian elements are negative!
WARNING : negative HOMO - LUMO gap : (op = alpha) -0.249743
WARNING : negative HOMO - LUMO gap : (op =  beta) -0.456176
WARNING : negative HOMO - LUMO gap : (op = alpha) -0.249743
WARNING : negative HOMO - LUMO gap : (op =  beta) -0.456176
   15     dE    -2.131766e+00     4.586971e-01    -4.4331e-01      1.991 (TRAH MIcro)
   15     dE    -2.197665e+00     2.153580e-01    -4.7201e-01      1.991 (TRAH MIcro)
   15     dE    -2.223593e+00     8.886608e-02    -4.7685e-01      1.991 (TRAH MIcro)
   15     dE    -2.228082e+00     3.297197e-02    -4.7693e-01      1.991 (TRAH MIcro)
   15     dE    -2.228483e+00     1.025527e-02    -4.7812e-01      1.991 (TRAH MIcro)
   15     dE    -2.228549e+00     4.705543e-03    -4.7746e-01      1.991 (TRAH MIcro)
   16      -3575.665562258580     3.237194e-01                     1.991 (TRAH MAcro)   No
WARNING: 74 diagonal Hessian elements are negative!
WARNING : negative HOMO - LUMO gap : (op = alpha) -0.059160
WARNING : negative HOMO - LUMO gap : (op =  beta) -0.118932
WARNING : negative HOMO - LUMO gap : (op = alpha) -0.059160
WARNING : negative HOMO - LUMO gap : (op =  beta) -0.118932
   16     dE    -2.379113e-01     2.506511e-01    -1.7083e-01      0.627 (TRAH MIcro)
   16     dE    -2.894398e-01     1.441427e-01    -1.9144e-01      0.715 (TRAH MIcro)
   16     dE    -3.020067e-01     5.447161e-02    -1.9580e-01      0.736 (TRAH MIcro)
   16     dE    -3.084958e-01     3.209023e-02    -1.9722e-01      0.751 (TRAH MIcro)
   16     dE    -3.111521e-01     1.768978e-02    -1.9763e-01      0.758 (TRAH MIcro)
   16     dE    -3.120561e-01     8.541616e-03    -1.9775e-01      0.760 (TRAH MIcro)
   17      -3575.964829087402     1.350205e-01                     2.390 (TRAH MAcro)   No
WARNING: 32 diagonal Hessian elements are negative!
WARNING : negative HOMO - LUMO gap : (op = alpha) -0.035978
WARNING : negative HOMO - LUMO gap : (op =  beta) -0.083497
WARNING : negative HOMO - LUMO gap : (op = alpha) -0.035978
WARNING : negative HOMO - LUMO gap : (op =  beta) -0.083497
   17     dE    -1.644873e-01     2.434389e-01    -7.3123e-02      1.118 (TRAH MIcro)
   17     dE    -2.698755e-01     9.976057e-02    -9.0794e-02      1.404 (TRAH MIcro)
   17     dE    -3.398047e-01     9.928367e-02    -9.4107e-02      1.616 (TRAH MIcro)
   17     dE    -4.912924e-01     8.339519e-02    -9.6336e-02      2.025 (TRAH MIcro)
   17     dE    -6.407022e-01     5.004244e-02    -9.7412e-02      2.362 (TRAH MIcro)
   17     dE    -6.554951e-01     3.117474e-02    -9.7808e-02      2.390 (TRAH MIcro)
   17     dE    -6.007022e-01     3.474992e-02    -9.7938e-02      2.266 (TRAH MIcro)
   17     dE    -5.128546e-01     3.563543e-02    -9.8145e-02      2.056 (TRAH MIcro)
   17     dE    -4.169920e-01     2.871509e-02    -9.8373e-02      1.800 (TRAH MIcro)
   17     dE    -3.497178e-01     1.932732e-02    -9.8558e-02      1.596 (TRAH MIcro)
[...]
      dz2     :     0.000808  d :     0.001079
      dxz     :     0.000404
      dyz     :     0.000118
      dx2y2   :    -0.000061
      dxy     :    -0.000188
      f0      :     0.000037  f :     0.000141
      f+1     :     0.000004
      f-1     :     0.000053
      f+2     :     0.000008
      f-2     :     0.000024
      f+3     :    -0.000011
      f-3     :     0.000025

 56 H s       :     0.000617  s :     0.000617
      pz      :    -0.000004  p :    -0.000057
      px      :    -0.000024
      py      :    -0.000029

 57 H s       :     0.000059  s :     0.000059
      pz      :    -0.000042  p :    -0.000110
      px      :    -0.000072
      py      :     0.000003

 58 N s       :    -0.001625  s :    -0.001625
      pz      :    -0.000608  p :    -0.004117
      px      :    -0.002240
      py      :    -0.001268
      dz2     :    -0.000031  d :    -0.000553
      dxz     :    -0.000009
      dyz     :     0.000026
      dx2y2   :    -0.000514
      dxy     :    -0.000026
      f0      :    -0.000002  f :    -0.000016
      f+1     :    -0.000000
      f-1     :    -0.000008
      f+2     :     0.000001
      f-2     :     0.000001
      f+3     :    -0.000005
      f-3     :    -0.000004

 59 C s       :     0.000191  s :     0.000191
      pz      :     0.000008  p :     0.000441
      px      :    -0.000023
      py      :     0.000455
      dz2     :     0.000056  d :     0.000032
      dxz     :    -0.000201
      dyz     :     0.000121
      dx2y2   :    -0.000003
      dxy     :     0.000059
      f0      :    -0.000001  f :    -0.000124
      f+1     :    -0.000004
      f-1     :    -0.000022
      f+2     :    -0.000031
      f-2     :    -0.000008
      f+3     :    -0.000027
      f-3     :    -0.000033

 60 C s       :    -0.000205  s :    -0.000205
      pz      :    -0.001403  p :    -0.002625
      px      :    -0.001026
      py      :    -0.000196
      dz2     :    -0.000010  d :    -0.000442
      dxz     :    -0.000092
      dyz     :    -0.000010
      dx2y2   :     0.000007
      dxy     :    -0.000337
      f0      :     0.000000  f :    -0.000051
      f+1     :    -0.000025
      f-1     :    -0.000008
      f+2     :    -0.000013
      f-2     :     0.000005
      f+3     :    -0.000002
      f-3     :    -0.000007

 61 H s       :     0.000110  s :     0.000110
      pz      :    -0.000032  p :    -0.000069
      px      :    -0.000024
      py      :    -0.000013

 62 N s       :    -0.000014  s :    -0.000014
      pz      :     0.000231  p :    -0.000055
      px      :    -0.000295
      py      :     0.000008
      dz2     :    -0.000169  d :    -0.000202
      dxz     :     0.000005
      dyz     :     0.000009
      dx2y2   :    -0.000049
      dxy     :     0.000003
      f0      :    -0.000001  f :    -0.000016
      f+1     :    -0.000008
      f-1     :    -0.000001
      f+2     :    -0.000000
      f-2     :     0.000001
      f+3     :    -0.000007
      f-3     :    -0.000000

 63 H s       :    -0.000012  s :    -0.000012
      pz      :     0.000011  p :    -0.000002
      px      :    -0.000014
      py      :     0.000000

 64 C s       :    -0.000022  s :    -0.000022
      pz      :    -0.000137  p :    -0.000314
      px      :    -0.000191
      py      :     0.000014
      dz2     :     0.000017  d :     0.000014
      dxz     :     0.000025
      dyz     :    -0.000003
      dx2y2   :    -0.000034
      dxy     :     0.000009
      f0      :     0.000001  f :     0.000006
      f+1     :    -0.000001
      f-1     :     0.000004
      f+2     :     0.000002
      f-2     :     0.000001
      f+3     :    -0.000003
      f-3     :     0.000001

 65 H s       :     0.000017  s :     0.000017
      pz      :    -0.000007  p :    -0.000011
      px      :    -0.000006
      py      :     0.000002

 66 C s       :    -0.007373  s :    -0.007373
      pz      :    -0.006525  p :    -0.023632
      px      :    -0.002226
      py      :    -0.014880
      dz2     :     0.000265  d :     0.001059
      dxz     :     0.001224
      dyz     :     0.001717
      dx2y2   :    -0.000527
      dxy     :    -0.001621
      f0      :    -0.000001  f :    -0.000496
      f+1     :    -0.000215
      f-1     :     0.000045
      f+2     :    -0.000279
      f-2     :     0.000137
      f+3     :    -0.000014
      f-3     :    -0.000168

 67 O s       :    -0.000138  s :    -0.000138
      pz      :     0.005969  p :    -0.006021
      px      :    -0.007397
      py      :    -0.004593
      dz2     :     0.000008  d :    -0.000844
      dxz     :     0.000052
      dyz     :    -0.000208
      dx2y2   :    -0.000602
      dxy     :    -0.000095
      f0      :    -0.000002  f :    -0.000091
      f+1     :    -0.000009
      f-1     :    -0.000006
      f+2     :    -0.000010
      f-2     :    -0.000001
      f+3     :     0.000001
      f-3     :    -0.000065

 68 N s       :     0.018099  s :     0.018099
      pz      :     0.129677  p :     0.820445
      px      :     0.024418
      py      :     0.666350
      dz2     :    -0.000809  d :    -0.000829
      dxz     :    -0.000358
      dyz     :     0.000521
      dx2y2   :    -0.000069
      dxy     :    -0.000114
      f0      :    -0.000056  f :    -0.000679
      f+1     :    -0.000065
      f-1     :    -0.000282
      f+2     :     0.000012
      f-2     :    -0.000161
      f+3     :    -0.000020
      f-3     :    -0.000107

 69 H s       :    -0.016022  s :    -0.016022
      pz      :     0.003862  p :     0.023677
      px      :     0.001898
      py      :     0.017917

 70 C s       :    -0.018352  s :    -0.018352
      pz      :    -0.047948  p :    -0.074408
      px      :    -0.000291
      py      :    -0.026170
      dz2     :     0.026293  d :     0.058215
      dxz     :    -0.000121
      dyz     :     0.035292
      dx2y2   :    -0.003644
      dxy     :     0.000394
      f0      :     0.003813  f :     0.008441
      f+1     :     0.000330
      f-1     :     0.000591
      f+2     :     0.001993
      f-2     :     0.001402
      f+3     :     0.000403
      f-3     :    -0.000092

 71 H s       :     0.004240  s :     0.004240
      pz      :    -0.001144  p :    -0.003004
      px      :     0.000064
      py      :    -0.001924

 72 C s       :    -0.001498  s :    -0.001498
      pz      :    -0.000792  p :     0.009644
      px      :     0.011120
      py      :    -0.000685
      dz2     :    -0.000543  d :    -0.003861
      dxz     :    -0.002168
      dyz     :    -0.000507
      dx2y2   :     0.000955
      dxy     :    -0.001597
      f0      :    -0.000104  f :    -0.000425
      f+1     :    -0.000013
      f-1     :    -0.000063
      f+2     :    -0.000184
      f-2     :     0.000029
      f+3     :     0.000020
      f-3     :    -0.000112

 73 H s       :    -0.000922  s :    -0.000922
      pz      :    -0.000020  p :     0.000040
      px      :     0.000077
      py      :    -0.000017

 74 H s       :    -0.000314  s :    -0.000314
      pz      :     0.000020  p :     0.000054
      px      :     0.000073
      py      :    -0.000040

 75 C s       :    -0.004616  s :    -0.004616
      pz      :    -0.013537  p :    -0.030746
      px      :    -0.005995
      py      :    -0.011214
      dz2     :     0.000653  d :     0.016764
      dxz     :     0.001569
      dyz     :     0.003128
      dx2y2   :     0.003142
      dxy     :     0.008272
      f0      :     0.001040  f :     0.031440
      f+1     :     0.000509
      f-1     :     0.001935
      f+2     :     0.008942
      f-2     :     0.001330
      f+3     :     0.004114
      f-3     :     0.013571

 76 O s       :     0.004028  s :     0.004028
      pz      :     0.017114  p :     0.332505
      px      :     0.266275
      py      :     0.049116
      dz2     :    -0.000243  d :    -0.000481
      dxz     :    -0.000196
      dyz     :    -0.000048
      dx2y2   :     0.000260
      dxy     :    -0.000254
      f0      :     0.000000  f :    -0.000095
      f+1     :    -0.000023
      f-1     :    -0.000006
      f+2     :     0.000028
      f-2     :    -0.000061
      f+3     :    -0.000046
      f-3     :     0.000012

 77 O s       :     0.004621  s :     0.004621
      pz      :     0.121988  p :     0.381404
      px      :     0.034390
      py      :     0.225027
      dz2     :    -0.000122  d :     0.000061
      dxz     :    -0.000033
      dyz     :    -0.000002
      dx2y2   :    -0.000257
      dxy     :     0.000475
      f0      :    -0.000004  f :    -0.000067
      f+1     :    -0.000031
      f-1     :     0.000012
      f+2     :     0.000005
      f-2     :    -0.000002
      f+3     :    -0.000077
      f-3     :     0.000031

 78 C s       :    -0.084156  s :    -0.084156
      pz      :     0.020888  p :    -0.308461
      px      :    -0.010211
      py      :    -0.319138
      dz2     :    -0.036112  d :    -0.066872
      dxz     :    -0.002508
      dyz     :    -0.027962
      dx2y2   :    -0.001053
      dxy     :     0.000762
      f0      :    -0.004936  f :    -0.008140
      f+1     :     0.000050
      f-1     :     0.000001
      f+2     :    -0.002834
      f-2     :    -0.000149
      f+3     :    -0.000142
      f-3     :    -0.000130

 79 O s       :    -0.006693  s :    -0.006693
      pz      :    -0.006892  p :    -0.213445
      px      :     0.002281
      py      :    -0.208833
      dz2     :    -0.002464  d :    -0.011970
      dxz     :    -0.000332
      dyz     :    -0.007813
      dx2y2   :    -0.001266
      dxy     :    -0.000096
      f0      :    -0.000563  f :    -0.000973
      f+1     :    -0.000049
      f-1     :    -0.000160
      f+2     :    -0.000180
      f-2     :    -0.000003
      f+3     :    -0.000008
      f-3     :    -0.000010



                      *****************************
                      * MAYER POPULATION ANALYSIS *
                      *****************************

  NA   - Mulliken gross atomic population
  ZA   - Total nuclear charge
  QA   - Mulliken gross atomic charge
  VA   - Mayer's total valence
  BVA  - Mayer's bonded valence
  FA   - Mayer's free valence

  ATOM       NA         ZA         QA         VA         BVA        FA
  0 Fe    25.9481    26.0000     0.0519     4.0033     0.0985     3.9048
  1 N      7.2987     7.0000    -0.2987     3.1409     3.1404     0.0005
  2 H      0.7920     1.0000     0.2080     0.9786     0.9786     0.0000
  3 C      5.8159     6.0000     0.1841     3.6256     3.6058     0.0198
  4 H      0.9136     1.0000     0.0864     1.0210     1.0193     0.0017
  5 C      6.2615     6.0000    -0.2615     3.8309     3.8310    -0.0000
  6 H      0.8692     1.0000     0.1308     0.9794     0.9794     0.0000
  7 H      0.8656     1.0000     0.1344     0.9832     0.9831     0.0000
  8 C      6.2776     6.0000    -0.2776     3.7274     3.7273     0.0001
  9 H      0.8698     1.0000     0.1302     0.9804     0.9804     0.0000
 10 H      0.8474     1.0000     0.1526     0.9870     0.9869     0.0001
 11 C      5.6633     6.0000     0.3367     4.3065     4.3023     0.0042
 12 O      8.1950     8.0000    -0.1950     2.3191     2.1083     0.2108
 13 O      8.2680     8.0000    -0.2680     2.2603     2.0593     0.2009
 14 C      5.9626     6.0000     0.0374     3.5558     3.1164     0.4395
 15 O      8.1760     8.0000    -0.1760     2.3328     2.2631     0.0697
 16 N      7.3406     7.0000    -0.3406     2.9203     2.1252     0.7950
 17 H      0.7924     1.0000     0.2076     0.9477     0.9467     0.0011
 18 C      5.8796     6.0000     0.1204     3.8589     3.8559     0.0029
 19 H      0.9105     1.0000     0.0895     0.9823     0.9823     0.0000
 20 C      6.2315     6.0000    -0.2315     3.9160     3.9144     0.0015
 21 H      0.9083     1.0000     0.0917     0.9928     0.9928     0.0000
 22 H      0.8873     1.0000     0.1127     0.9626     0.9626     0.0000
 23 C      6.2712     6.0000    -0.2712     3.9220     3.9220     0.0000
 24 H      0.8595     1.0000     0.1405     0.9672     0.9672     0.0000
 25 H      0.8615     1.0000     0.1385     0.9824     0.9824     0.0000
 26 C      6.1601     6.0000    -0.1601     3.7713     3.7713     0.0000
 27 H      0.8793     1.0000     0.1207     0.9665     0.9665     0.0000
 28 H      0.8931     1.0000     0.1069     0.9769     0.9769     0.0000
 29 C      6.1849     6.0000    -0.1849     3.6845     3.6845     0.0000
 30 H      0.8081     1.0000     0.1919     0.9597     0.9597     0.0000
 31 H      0.8176     1.0000     0.1824     0.9568     0.9568     0.0000
 32 N      7.2941     7.0000    -0.2941     3.4854     3.4854     0.0000
 33 H      0.6724     1.0000     0.3276     0.8929     0.8929     0.0000
 34 H      0.6914     1.0000     0.3086     0.9060     0.9060     0.0000
 35 H      0.6815     1.0000     0.3185     0.8941     0.8941     0.0000
 36 C      5.7337     6.0000     0.2663     4.3717     4.3675     0.0042
 37 O      8.3136     8.0000    -0.3136     2.2290     2.1109     0.1181
 38 O      8.3055     8.0000    -0.3055     2.2229     2.1324     0.0905
 39 N      7.3427     7.0000    -0.3427     2.9057     2.3013     0.6044
 40 H      0.8094     1.0000     0.1906     0.9648     0.9640     0.0008
 41 C      5.8559     6.0000     0.1441     3.8369     3.8231     0.0138
 42 H      0.8961     1.0000     0.1039     0.9673     0.9672     0.0000
 43 C      6.2507     6.0000    -0.2507     3.7822     3.7797     0.0025
 44 H      0.8856     1.0000     0.1144     1.0021     1.0021     0.0000
 45 H      0.8812     1.0000     0.1188     0.9716     0.9716     0.0000
 46 C      5.7197     6.0000     0.2803     4.4740     4.4720     0.0020
 47 O      8.3139     8.0000    -0.3139     2.2212     2.1297     0.0915
 48 O      8.3303     8.0000    -0.3303     2.1863     2.0960     0.0903
 49 C      5.9007     6.0000     0.0993     3.5052     3.1715     0.3338
 50 O      8.2243     8.0000    -0.2243     2.3067     2.2473     0.0594
 51 N      7.3260     7.0000    -0.3260     2.8908     2.0951     0.7957
 52 H      0.7949     1.0000     0.2051     0.9759     0.9748     0.0011
 53 C      5.9819     6.0000     0.0181     3.9314     3.9289     0.0025
 54 H      0.9000     1.0000     0.1000     0.9907     0.9899     0.0008
 55 C      6.2357     6.0000    -0.2357     3.8574     3.8574     0.0001
 56 H      0.8982     1.0000     0.1018     0.9751     0.9751     0.0000
 57 H      0.9044     1.0000     0.0956     0.9872     0.9872     0.0000
 58 N      7.3009     7.0000    -0.3009     3.0482     3.0481     0.0001
 59 C      5.8609     6.0000     0.1391     3.7895     3.7895     0.0000
 60 C      5.9688     6.0000     0.0312     3.9658     3.9658     0.0000
 61 H      0.8628     1.0000     0.1372     0.9751     0.9751     0.0000
 62 N      7.2440     7.0000    -0.2440     3.3517     3.3517     0.0000
 63 H      0.7650     1.0000     0.2350     0.9507     0.9507     0.0000
 64 C      6.1193     6.0000    -0.1193     3.8990     3.8990    -0.0000
 65 H      0.8604     1.0000     0.1396     0.9795     0.9795     0.0000
 66 C      5.6849     6.0000     0.3151     4.1626     4.1603     0.0023
 67 O      8.3360     8.0000    -0.3360     2.1749     2.1743     0.0006
 68 N      7.2923     7.0000    -0.2923     2.9468     2.1745     0.7723
 69 H      0.8001     1.0000     0.1999     0.9557     0.9546     0.0011
 70 C      5.8721     6.0000     0.1279     3.7788     3.7649     0.0139
 71 H      0.8623     1.0000     0.1377     1.0015     1.0010     0.0005
 72 C      6.3031     6.0000    -0.3031     3.7699     3.7692     0.0007
 73 H      0.8646     1.0000     0.1354     0.9912     0.9912     0.0000
 74 H      0.8487     1.0000     0.1513     0.9792     0.9792     0.0000
 75 C      5.7023     6.0000     0.2977     4.4070     4.4041     0.0029
 76 O      8.2813     8.0000    -0.2813     2.2549     2.1291     0.1258
 77 O      8.2417     8.0000    -0.2417     2.2904     2.1209     0.1694
 78 C      5.8902     6.0000     0.1098     3.5028     3.1506     0.3521
 79 O      8.1846     8.0000    -0.1846     2.3412     2.2782     0.0630

  Mayer bond orders larger than 0.100000
B(  1-N ,  2-H ) :   0.9166 B(  1-N ,  3-C ) :   0.8982 B(  1-N , 66-C ) :   1.2009 
B(  3-C ,  4-H ) :   0.9564 B(  3-C ,  5-C ) :   0.9245 B(  3-C , 14-C ) :   0.7876 
B(  5-C ,  6-H ) :   0.9681 B(  5-C ,  7-H ) :   0.9574 B(  5-C ,  8-C ) :   0.9229 
B(  8-C ,  9-H ) :   0.9562 B(  8-C , 10-H ) :   0.9395 B(  8-C , 11-C ) :   0.9398 
B( 11-C , 12-O ) :   1.6704 B( 11-C , 13-O ) :   1.6300 B( 12-O , 13-O ) :   0.3205 
B( 14-C , 15-O ) :   2.1947 B( 16-N , 17-H ) :   0.9131 B( 16-N , 18-C ) :   1.0467 
B( 18-C , 19-H ) :   0.9552 B( 18-C , 20-C ) :   0.9360 B( 18-C , 36-C ) :   0.8977 
B( 20-C , 21-H ) :   0.9482 B( 20-C , 22-H ) :   0.9655 B( 20-C , 23-C ) :   0.9558 
B( 23-C , 24-H ) :   0.9571 B( 23-C , 25-H ) :   0.9753 B( 23-C , 26-C ) :   0.9833 
B( 26-C , 27-H ) :   0.9717 B( 26-C , 28-H ) :   0.9246 B( 26-C , 29-C ) :   0.9170 
B( 29-C , 30-H ) :   0.9640 B( 29-C , 31-H ) :   0.9543 B( 29-C , 32-N ) :   0.8366 
B( 32-N , 33-H ) :   0.8750 B( 32-N , 34-H ) :   0.8828 B( 32-N , 35-H ) :   0.8854 
B( 36-C , 37-O ) :   1.6560 B( 36-C , 38-O ) :   1.7043 B( 37-O , 38-O ) :   0.1551 
B( 39-N , 40-H ) :   0.9225 B( 39-N , 41-C ) :   1.1009 B( 39-N , 49-C ) :   0.1753 
B( 41-C , 42-H ) :   0.9411 B( 41-C , 43-C ) :   0.9100 B( 41-C , 49-C ) :   0.8096 
B( 43-C , 44-H ) :   0.9315 B( 43-C , 45-H ) :   0.9328 B( 43-C , 46-C ) :   0.9591 
B( 46-C , 47-O ) :   1.7398 B( 46-C , 48-O ) :   1.7112 B( 47-O , 48-O ) :   0.1443 
B( 49-C , 50-O ) :   2.1121 B( 51-N , 52-H ) :   0.9090 B( 51-N , 53-C ) :   1.0839 
B( 53-C , 54-H ) :   0.9467 B( 53-C , 55-C ) :   0.9520 B( 53-C , 66-C ) :   0.9032 
B( 55-C , 56-H ) :   0.9722 B( 55-C , 57-H ) :   0.9406 B( 55-C , 59-C ) :   0.9500 
B( 58-N , 59-C ) :   1.2714 B( 58-N , 60-C ) :   1.6401 B( 59-C , 64-C ) :   1.5509 
B( 60-C , 61-H ) :   0.9578 B( 60-C , 62-N ) :   1.2005 B( 60-C , 64-C ) :   0.1161 
B( 62-N , 63-H ) :   0.9146 B( 62-N , 64-C ) :   1.2057 B( 64-C , 65-H ) :   0.9386 
B( 66-C , 67-O ) :   1.9974 B( 68-N , 69-H ) :   0.9226 B( 68-N , 70-C ) :   1.1069 
B( 70-C , 71-H ) :   0.9222 B( 70-C , 72-C ) :   0.8768 B( 70-C , 78-C ) :   0.7667 
B( 72-C , 73-H ) :   0.9275 B( 72-C , 74-H ) :   0.9413 B( 72-C , 75-C ) :   0.9683 
B( 75-C , 76-O ) :   1.7068 B( 75-C , 77-O ) :   1.6825 B( 76-O , 77-O ) :   0.2270 
B( 78-C , 79-O ) :   2.1431 

-------
TIMINGS
-------

Total SCF time: 0 days 6 hours 28 min 50 sec 

Total time                  ....   23330.914 sec
Sum of individual times     ....   23229.793 sec  ( 99.6%)

SCF preparation             ....       0.484 sec  (  0.0%)
Fock matrix formation       ....   22779.642 sec  ( 97.6%)
  Startup                   ....       0.624 sec  (  0.0% of F)
  Split-RI-J                ....    3923.179 sec  ( 17.2% of F)
  Chain of spheres X        ....   17671.058 sec  ( 77.6% of F)
  XC integration            ....    1172.284 sec  (  5.1% of F)
    XC Preparation          ....       0.000 sec  (  0.0% of XC)
    Basis function eval.    ....     181.855 sec  ( 15.5% of XC)
    Density eval.           ....     435.743 sec  ( 37.2% of XC)
    XC-Functional eval.     ....      11.662 sec  (  1.0% of XC)
    XC-Potential eval.      ....     500.677 sec  ( 42.7% of XC)
Diagonalization             ....       0.000 sec  (  0.0%)
Density matrix formation    ....      25.680 sec  (  0.1%)
Total Energy calculation    ....       1.001 sec  (  0.0%)
Population analysis         ....       1.502 sec  (  0.0%)
Orbital Transformation      ....     258.120 sec  (  1.1%)
Orbital Orthonormalization  ....       0.000 sec  (  0.0%)
DIIS solution               ....     163.277 sec  (  0.7%)
SOSCF solution              ....       0.000 sec  (  0.0%)
NR solution                 ....       0.087 sec  (  0.0%)
Finished LeanSCF after 23331.4 sec

Maximum memory used throughout the entire LEANSCF-calculation: 544.2 MB
